 Entering Link 1 = C:\G09W\l1.exe PID=      6020.
  
 Copyright (c) 1988,1990,1992,1993,1995,1998,2003,2009, Gaussian, Inc.
                  All Rights Reserved.
  
 This is part of the Gaussian(R) 09 program.  It is based on
 the Gaussian(R) 03 system (copyright 2003, Gaussian, Inc.),
 the Gaussian(R) 98 system (copyright 1998, Gaussian, Inc.),
 the Gaussian(R) 94 system (copyright 1995, Gaussian, Inc.),
 the Gaussian 92(TM) system (copyright 1992, Gaussian, Inc.),
 the Gaussian 90(TM) system (copyright 1990, Gaussian, Inc.),
 the Gaussian 88(TM) system (copyright 1988, Gaussian, Inc.),
 the Gaussian 86(TM) system (copyright 1986, Carnegie Mellon
 University), and the Gaussian 82(TM) system (copyright 1983,
 Carnegie Mellon University). Gaussian is a federally registered
 trademark of Gaussian, Inc.
  
 This software contains proprietary and confidential information,
 including trade secrets, belonging to Gaussian, Inc.
  
 This software is provided under written license and may be
 used, copied, transmitted, or stored only in accord with that
 written license.
  
 The following legend is applicable only to US Government
 contracts under FAR:
  
                    RESTRICTED RIGHTS LEGEND
  
 Use, reproduction and disclosure by the US Government is
 subject to restrictions as set forth in subparagraphs (a)
 and (c) of the Commercial Computer Software - Restricted
 Rights clause in FAR 52.227-19.
  
 Gaussian, Inc.
 340 Quinnipiac St., Bldg. 40, Wallingford CT 06492
  
  
 ---------------------------------------------------------------
 Warning -- This program may not be used in any manner that
 competes with the business of Gaussian, Inc. or will provide
 assistance to any competitor of Gaussian, Inc.  The licensee
 of this program is prohibited from giving any competitor of
 Gaussian, Inc. access to this program.  By using this program,
 the user acknowledges that Gaussian, Inc. is engaged in the
 business of creating and licensing software in the field of
 computational chemistry and represents and warrants to the
 licensee that it is not a competitor of Gaussian, Inc. and that
 it will not use this program in any manner prohibited above.
 ---------------------------------------------------------------
  

 Cite this work as:
 Gaussian 09, Revision A.02,
 M. J. Frisch, G. W. Trucks, H. B. Schlegel, G. E. Scuseria, 
 M. A. Robb, J. R. Cheeseman, G. Scalmani, V. Barone, B. Mennucci, 
 G. A. Petersson, H. Nakatsuji, M. Caricato, X. Li, H. P. Hratchian, 
 A. F. Izmaylov, J. Bloino, G. Zheng, J. L. Sonnenberg, M. Hada, 
 M. Ehara, K. Toyota, R. Fukuda, J. Hasegawa, M. Ishida, T. Nakajima, 
 Y. Honda, O. Kitao, H. Nakai, T. Vreven, J. A. Montgomery, Jr., 
 J. E. Peralta, F. Ogliaro, M. Bearpark, J. J. Heyd, E. Brothers, 
 K. N. Kudin, V. N. Staroverov, R. Kobayashi, J. Normand, 
 K. Raghavachari, A. Rendell, J. C. Burant, S. S. Iyengar, J. Tomasi, 
 M. Cossi, N. Rega, J. M. Millam, M. Klene, J. E. Knox, J. B. Cross, 
 V. Bakken, C. Adamo, J. Jaramillo, R. Gomperts, R. E. Stratmann, 
 O. Yazyev, A. J. Austin, R. Cammi, C. Pomelli, J. W. Ochterski, 
 R. L. Martin, K. Morokuma, V. G. Zakrzewski, G. A. Voth, 
 P. Salvador, J. J. Dannenberg, S. Dapprich, A. D. Daniels, 
 O. Farkas, J. B. Foresman, J. V. Ortiz, J. Cioslowski, 
 and D. J. Fox, Gaussian, Inc., Wallingford CT, 2009.
 
 ******************************************
 Gaussian 09:  IA32W-G09RevA.02 11-Jun-2009
                25-Oct-2024 
 ******************************************
 %chk=C:\Users\melih\Desktop\Gaussian\H2S\BondScan.chk
 ---------------------------------------------
 # opt=modredundant hf/3-21g geom=connectivity
 ---------------------------------------------
 1/18=120,19=15,38=1,57=2/1,3;
 2/9=110,12=2,17=6,18=5,40=1/2;
 3/5=5,11=9,16=1,25=1,30=1,71=1/1,2,3;
 4//1;
 5/5=2,38=5/2;
 6/7=2,8=2,9=2,10=2,28=1/1;
 7//1,2,3,16;
 1/18=20,19=15/3(2);
 2/9=110/2;
 99//99;
 2/9=110/2;
 3/5=5,11=9,16=1,25=1,30=1,71=1/1,2,3;
 4/5=5,16=3/1;
 5/5=2,38=5/2;
 7//1,2,3,16;
 1/18=20,19=15/3(-5);
 2/9=110/2;
 6/7=2,8=2,9=2,10=2,19=2,28=1/1;
 99/9=1/99;
 --------------------
 H2S Bond Length Scan
 --------------------
 Symbolic Z-matrix:
 Charge =  0 Multiplicity = 1
 S                    -1.5528    0.40373   0. 
 H                    -0.2428    0.40373   0. 
 H                    -1.99008   1.63859   0. 
 
 The following ModRedundant input section has been read:
 B    1    2 S  10 0.1000                                                      
 B    1    3 S  10 0.1000                                                      

 GradGradGradGradGradGradGradGradGradGradGradGradGradGradGradGradGradGrad
 Berny optimization.
 Initialization pass.
                           ----------------------------
                           !    Initial Parameters    !
                           ! (Angstroms and Degrees)  !
 --------------------------                            --------------------------
 ! Name  Definition              Value          Derivative Info.                !
 --------------------------------------------------------------------------------
 ! R1    R(1,2)                  1.31           Scan                            !
 ! R2    R(1,3)                  1.31           Scan                            !
 ! A1    A(2,1,3)              109.5            estimate D2E/DX2                !
 --------------------------------------------------------------------------------
 Trust Radius=3.00D-01 FncErr=1.00D-07 GrdErr=1.00D-07
 Number of optimizations in scan= 121
 Number of steps in this run=  20 maximum allowed number of steps= 100.
 GradGradGradGradGradGradGradGradGradGradGradGradGradGradGradGradGradGrad

                          Input orientation:                          
 ---------------------------------------------------------------------
 Center     Atomic      Atomic             Coordinates (Angstroms)
 Number     Number       Type             X           Y           Z
 ---------------------------------------------------------------------
      1         16           0       -1.552795    0.403727    0.000000
      2          1           0       -0.242795    0.403727    0.000000
      3          1           0       -1.990082    1.638587    0.000000
 ---------------------------------------------------------------------
                    Distance matrix (angstroms):
                    1          2          3
     1  S    0.000000
     2  H    1.310000   0.000000
     3  H    1.310000   2.139601   0.000000
 Stoichiometry    H2S
 Framework group  C2V[C2(S),SGV(H2)]
 Deg. of freedom     2
 Full point group                 C2V     NOp   4
 Largest Abelian subgroup         C2V     NOp   4
 Largest concise Abelian subgroup C2      NOp   2
                         Standard orientation:                         
 ---------------------------------------------------------------------
 Center     Atomic      Atomic             Coordinates (Angstroms)
 Number     Number       Type             X           Y           Z
 ---------------------------------------------------------------------
      1         16           0        0.000000    0.000000    0.084007
      2          1           0        0.000000    1.069800   -0.672054
      3          1           0        0.000000   -1.069800   -0.672054
 ---------------------------------------------------------------------
 Rotational constants (GHZ):    466.2733406    219.0768627    149.0474507
 Standard basis: 3-21G (6D, 7F)
 There are     9 symmetry adapted basis functions of A1  symmetry.
 There are     0 symmetry adapted basis functions of A2  symmetry.
 There are     3 symmetry adapted basis functions of B1  symmetry.
 There are     5 symmetry adapted basis functions of B2  symmetry.
 Integral buffers will be    262144 words long.
 Raffenetti 1 integral format.
 Two-electron integral symmetry is turned on.
    17 basis functions,    33 primitive gaussians,    17 cartesian basis functions
     9 alpha electrons        9 beta electrons
       nuclear repulsion energy        13.1737913625 Hartrees.
 NAtoms=    3 NActive=    3 NUniq=    2 SFac= 1.69D+00 NAtFMM=   80 NAOKFM=F Big=F
 One-electron integrals computed using PRISM.
 NBasis=    17 RedAO= T  NBF=     9     0     3     5
 NBsUse=    17 1.00D-06 NBFU=     9     0     3     5
 Harris functional with IExCor=  205 diagonalized for initial guess.
 ExpMin= 1.42D-01 ExpMax= 1.21D+03 ExpMxC= 1.21D+03 IAcc=1 IRadAn=         1 AccDes= 0.00D+00
 HarFok:  IExCor=  205 AccDes= 0.00D+00 IRadAn=         1 IDoV= 1
 ScaDFX=  1.000000  1.000000  1.000000  1.000000
 FoFCou: FMM=F IPFlag=           0 FMFlag=      100000 FMFlg1=           0
         NFxFlg=           0 DoJE=T BraDBF=F KetDBF=T FulRan=T
         Omega=  0.000000  0.000000  1.000000  0.000000  0.000000 ICntrl=     500 IOpCl=  0
         NMat0=    1 NMatS0=    1 NMatT0=    0 NMatD0=    1 NMtDS0=    0 NMtDT0=    0
         I1Cent=           4 NGrid=           0.
 Petite list used in FoFCou.
 Initial guess orbital symmetries:
       Occupied  (A1) (A1) (B2) (A1) (B1) (A1) (B2) (A1) (B1)
       Virtual   (A1) (B2) (B2) (A1) (A1) (B1) (A1) (B2)
 The electronic state of the initial guess is 1-A1.
 Requested convergence on RMS density matrix=1.00D-08 within 128 cycles.
 Requested convergence on MAX density matrix=1.00D-06.
 Requested convergence on             energy=1.00D-06.
 No special actions if energy rises.
 Keep R1 ints in memory in canonical form, NReq=831531.
 SCF Done:  E(RHF) =  -396.697720247     A.U. after    9 cycles
             Convg  =    0.4472D-08             -V/T =  2.0002

 **********************************************************************

            Population analysis using the SCF density.

 **********************************************************************

 Orbital symmetries:
       Occupied  (A1) (A1) (B2) (A1) (B1) (A1) (B2) (A1) (B1)
       Virtual   (A1) (B2) (A1) (B2) (A1) (B1) (A1) (B2)
 The electronic state is 1-A1.
 Alpha  occ. eigenvalues --  -91.31092  -8.91595  -6.59221  -6.58856  -6.58590
 Alpha  occ. eigenvalues --   -1.00345  -0.63051  -0.46532  -0.38995
 Alpha virt. eigenvalues --    0.19081   0.21672   0.63815   0.65550   0.70100
 Alpha virt. eigenvalues --    0.70809   1.14618   1.23190
          Condensed to atoms (all electrons):
              1          2          3
     1  S   15.638542   0.273594   0.273594
     2  H    0.273594   0.654777  -0.021237
     3  H    0.273594  -0.021237   0.654777
 Mulliken atomic charges:
              1
     1  S   -0.185730
     2  H    0.092865
     3  H    0.092865
 Sum of Mulliken atomic charges =   0.00000
 Mulliken charges with hydrogens summed into heavy atoms:
              1
     1  S    0.000000
 Sum of Mulliken charges with hydrogens summed into heavy atoms =   0.00000
 Electronic spatial extent (au):  <R**2>=             44.1674
 Charge=              0.0000 electrons
 Dipole moment (field-independent basis, Debye):
    X=              0.0000    Y=              0.0000    Z=             -1.9789  Tot=              1.9789
 Quadrupole moment (field-independent basis, Debye-Ang):
   XX=            -16.7106   YY=            -12.0320   ZZ=            -14.7886
   XY=              0.0000   XZ=              0.0000   YZ=              0.0000
 Traceless Quadrupole moment (field-independent basis, Debye-Ang):
   XX=             -2.2002   YY=              2.4784   ZZ=             -0.2782
   XY=              0.0000   XZ=              0.0000   YZ=              0.0000
 Octapole moment (field-independent basis, Debye-Ang**2):
  XXX=              0.0000  YYY=              0.0000  ZZZ=             -1.7267  XYY=              0.0000
  XXY=              0.0000  XXZ=             -0.7289  XZZ=              0.0000  YZZ=              0.0000
  YYZ=             -0.8931  XYZ=              0.0000
 Hexadecapole moment (field-independent basis, Debye-Ang**3):
 XXXX=            -22.5955 YYYY=            -23.3404 ZZZZ=            -23.7385 XXXY=              0.0000
 XXXZ=              0.0000 YYYX=              0.0000 YYYZ=              0.0000 ZZZX=              0.0000
 ZZZY=              0.0000 XXYY=             -7.9940 XXZZ=             -7.7841 YYZZ=             -7.5519
 XXYZ=              0.0000 YYXZ=              0.0000 ZZXY=              0.0000
 N-N= 1.317379136248D+01 E-N=-9.713769908850D+02  KE= 3.965994911238D+02
 Symmetry A1   KE= 3.210940146874D+02
 Symmetry A2   KE= 0.000000000000D+00
 Symmetry B1   KE= 3.817503426013D+01
 Symmetry B2   KE= 3.733044217633D+01
 Calling FoFJK, ICntrl=      2127 FMM=F ISym2X=1 I1Cent= 0 IOpClX= 0 NMat=1 NMatS=1 NMatT=0.
 ***** Axes restored to original set *****
 -------------------------------------------------------------------
 Center     Atomic                   Forces (Hartrees/Bohr)
 Number     Number              X              Y              Z
 -------------------------------------------------------------------
      1       16          -0.030190273   -0.042718248    0.000000000
      2        1           0.019368563    0.018338965    0.000000000
      3        1           0.010821710    0.024379283    0.000000000
 -------------------------------------------------------------------
 Cartesian Forces:  Max     0.042718248 RMS     0.021497336

 GradGradGradGradGradGradGradGradGradGradGradGradGradGradGradGradGradGrad
 Berny optimization.
 Internal  Forces:  Max     0.045398864 RMS     0.030612303
 Search for a local minimum.
 Step number   1 out of a maximum of   20 on scan point     1 out of   121
 All quantities printed in internal units (Hartrees-Bohrs-Radians)
 Mixed Optimization -- RFO/linear search
 Second derivative matrix not updated -- first step.
 The second derivative matrix:
                          R1        R2        A1
           R1           0.28975
           R2           0.00000   0.28975
           A1           0.00000   0.00000   0.16000
     Eigenvalues ---    0.160001000.000001000.00000
 RFO step:  Lambda=-1.19840016D-02 EMin= 1.60000000D-01
 Linear search not attempted -- first point.
 Iteration  1 RMS(Cart)=  0.14998518 RMS(Int)=  0.03910860
 Iteration  2 RMS(Cart)=  0.05701593 RMS(Int)=  0.00110768
 Iteration  3 RMS(Cart)=  0.00081648 RMS(Int)=  0.00000010
 Iteration  4 RMS(Cart)=  0.00000014 RMS(Int)=  0.00000000
 Iteration  1 RMS(Cart)=  0.00000000 RMS(Int)=  0.00000000
 ClnCor:  largest displacement from symmetrization is 1.52D-09 for atom     3.
 Variable       Old X    -DE/DX   Delta X   Delta X   Delta X     New X
                                 (Linear)    (Quad)   (Total)
    R1        2.47554   0.01937   0.00000   0.00000   0.00000   2.47554
    R2        2.47554   0.01937   0.00000   0.00000   0.00000   2.47554
    A1        1.91114  -0.04540   0.00000  -0.26397  -0.26397   1.64716
         Item               Value     Threshold  Converged?
 Maximum Force            0.045399     0.000450     NO 
 RMS     Force            0.045399     0.000300     NO 
 Maximum Displacement     0.216703     0.001800     NO 
 RMS     Displacement     0.206103     0.001200     NO 
 Predicted change in Energy=-6.409530D-03
 GradGradGradGradGradGradGradGradGradGradGradGradGradGradGradGradGradGrad

                          Input orientation:                          
 ---------------------------------------------------------------------
 Center     Atomic      Atomic             Coordinates (Angstroms)
 Number     Number       Type             X           Y           Z
 ---------------------------------------------------------------------
      1         16           0       -1.604435    0.330657    0.000000
      2          1           0       -0.305829    0.503057    0.000000
      3          1           0       -1.875408    1.612326    0.000000
 ---------------------------------------------------------------------
                    Distance matrix (angstroms):
                    1          2          3
     1  S    0.000000
     2  H    1.310000   0.000000
     3  H    1.310000   1.921992   0.000000
 Stoichiometry    H2S
 Framework group  C2V[C2(S),SGV(H2)]
 Deg. of freedom     2
 Full point group                 C2V     NOp   4
 Largest Abelian subgroup         C2V     NOp   4
 Largest concise Abelian subgroup C2      NOp   2
                         Standard orientation:                         
 ---------------------------------------------------------------------
 Center     Atomic      Atomic             Coordinates (Angstroms)
 Number     Number       Type             X           Y           Z
 ---------------------------------------------------------------------
      1         16           0        0.000000    0.000000    0.098919
      2          1           0        0.000000    0.960996   -0.791354
      3          1           0        0.000000   -0.960996   -0.791354
 ---------------------------------------------------------------------
 Rotational constants (GHZ):    336.2844380    271.4930503    150.2176201
 Standard basis: 3-21G (6D, 7F)
 There are     9 symmetry adapted basis functions of A1  symmetry.
 There are     0 symmetry adapted basis functions of A2  symmetry.
 There are     3 symmetry adapted basis functions of B1  symmetry.
 There are     5 symmetry adapted basis functions of B2  symmetry.
 Integral buffers will be    262144 words long.
 Raffenetti 1 integral format.
 Two-electron integral symmetry is turned on.
    17 basis functions,    33 primitive gaussians,    17 cartesian basis functions
     9 alpha electrons        9 beta electrons
       nuclear repulsion energy        13.2017935884 Hartrees.
 NAtoms=    3 NActive=    3 NUniq=    2 SFac= 1.69D+00 NAtFMM=   80 NAOKFM=F Big=F
 One-electron integrals computed using PRISM.
 NBasis=    17 RedAO= T  NBF=     9     0     3     5
 NBsUse=    17 1.00D-06 NBFU=     9     0     3     5
 Initial guess read from the read-write file.
 B after Tr=     0.000000    0.000000    0.000000
         Rot=    1.000000    0.000000    0.000000    0.000000 Ang=   0.00 deg.
 Initial guess orbital symmetries:
       Occupied  (A1) (A1) (B2) (A1) (B1) (A1) (B2) (A1) (B1)
       Virtual   (A1) (B2) (A1) (B2) (A1) (B1) (A1) (B2)
 Harris functional with IExCor=  205 diagonalized for initial guess.
 ExpMin= 1.42D-01 ExpMax= 1.21D+03 ExpMxC= 1.21D+03 IAcc=1 IRadAn=         1 AccDes= 0.00D+00
 HarFok:  IExCor=  205 AccDes= 0.00D+00 IRadAn=         1 IDoV= 1
 ScaDFX=  1.000000  1.000000  1.000000  1.000000
 FoFCou: FMM=F IPFlag=           0 FMFlag=      100000 FMFlg1=           0
         NFxFlg=           0 DoJE=T BraDBF=F KetDBF=T FulRan=T
         Omega=  0.000000  0.000000  1.000000  0.000000  0.000000 ICntrl=     500 IOpCl=  0
         NMat0=    1 NMatS0=    1 NMatT0=    0 NMatD0=    1 NMtDS0=    0 NMtDT0=    0
         I1Cent=           4 NGrid=           0.
 Petite list used in FoFCou.
 Requested convergence on RMS density matrix=1.00D-08 within 128 cycles.
 Requested convergence on MAX density matrix=1.00D-06.
 Requested convergence on             energy=1.00D-06.
 No special actions if energy rises.
 Keep R1 ints in memory in canonical form, NReq=831531.
 SCF Done:  E(RHF) =  -396.702899250     A.U. after    9 cycles
             Convg  =    0.1377D-08             -V/T =  2.0002
 Calling FoFJK, ICntrl=      2127 FMM=F ISym2X=1 I1Cent= 0 IOpClX= 0 NMat=1 NMatS=1 NMatT=0.
 ***** Axes restored to original set *****
 -------------------------------------------------------------------
 Center     Atomic                   Forces (Hartrees/Bohr)
 Number     Number              X              Y              Z
 -------------------------------------------------------------------
      1       16          -0.015007526   -0.021235158    0.000000000
      2        1           0.022835365   -0.000217726    0.000000000
      3        1          -0.007827839    0.021452884    0.000000000
 -------------------------------------------------------------------
 Cartesian Forces:  Max     0.022835365 RMS     0.013820920

 GradGradGradGradGradGradGradGradGradGradGradGradGradGradGradGradGradGrad
 Berny optimization.
 Using GEDIIS/GDIIS optimizer.
 Internal  Forces:  Max     0.022608102 RMS     0.019024843
 Search for a local minimum.
 Step number   2 out of a maximum of   20 on scan point     1 out of   121
 All quantities printed in internal units (Hartrees-Bohrs-Radians)
 Mixed Optimization -- RFO/linear search
 Update second derivatives using D2CorX and points    1    2
 DE= -5.18D-03 DEPred=-6.41D-03 R= 8.08D-01
 SS=  1.41D+00  RLast= 2.64D-01 DXNew= 5.0454D-01 7.9191D-01
 Trust test= 8.08D-01 RLast= 2.64D-01 DXMaxT set to 5.05D-01
 The second derivative matrix:
                          R1        R2        A1
           R1           0.29050
           R2           0.00074   0.29050
           A1           0.01227   0.01227   0.20219
 Use linear search instead of GDIIS.
     Eigenvalues ---    0.202191000.000001000.00000
 RFO step:  Lambda= 0.00000000D+00 EMin= 2.02191041D-01
 Quartic linear search produced a step of -0.13718.
 Iteration  1 RMS(Cart)=  0.02930163 RMS(Int)=  0.00033123
 Iteration  2 RMS(Cart)=  0.00027435 RMS(Int)=  0.00000000
 Iteration  3 RMS(Cart)=  0.00000000 RMS(Int)=  0.00000000
 Iteration  1 RMS(Cart)=  0.00000000 RMS(Int)=  0.00000000
 ClnCor:  largest displacement from symmetrization is 1.49D-09 for atom     3.
 Variable       Old X    -DE/DX   Delta X   Delta X   Delta X     New X
                                 (Linear)    (Quad)   (Total)
    R1        2.47554   0.02261   0.00000   0.00000   0.00000   2.47554
    R2        2.47554   0.02261   0.00000   0.00000   0.00000   2.47554
    A1        1.64716   0.00797   0.03621   0.00000   0.03621   1.68338
         Item               Value     Threshold  Converged?
 Maximum Force            0.007974     0.000450     NO 
 RMS     Force            0.007974     0.000300     NO 
 Maximum Displacement     0.031010     0.001800     NO 
 RMS     Displacement     0.029168     0.001200     NO 
 Predicted change in Energy=-1.561795D-04
 GradGradGradGradGradGradGradGradGradGradGradGradGradGradGradGradGradGrad

                          Input orientation:                          
 ---------------------------------------------------------------------
 Center     Atomic      Atomic             Coordinates (Angstroms)
 Number     Number       Type             X           Y           Z
 ---------------------------------------------------------------------
      1         16           0       -1.597685    0.340209    0.000000
      2          1           0       -0.296170    0.489070    0.000000
      3          1           0       -1.891817    1.616762    0.000000
 ---------------------------------------------------------------------
                    Distance matrix (angstroms):
                    1          2          3
     1  S    0.000000
     2  H    1.310000   0.000000
     3  H    1.310000   1.953914   0.000000
 Stoichiometry    H2S
 Framework group  C2V[C2(S),SGV(H2)]
 Deg. of freedom     2
 Full point group                 C2V     NOp   4
 Largest Abelian subgroup         C2V     NOp   4
 Largest concise Abelian subgroup C2      NOp   2
                         Standard orientation:                         
 ---------------------------------------------------------------------
 Center     Atomic      Atomic             Coordinates (Angstroms)
 Number     Number       Type             X           Y           Z
 ---------------------------------------------------------------------
      1         16           0        0.000000    0.000000    0.096970
      2          1           0        0.000000    0.976957   -0.775759
      3          1           0        0.000000   -0.976957   -0.775759
 ---------------------------------------------------------------------
 Rotational constants (GHZ):    349.9411569    262.6946092    150.0527076
 Standard basis: 3-21G (6D, 7F)
 There are     9 symmetry adapted basis functions of A1  symmetry.
 There are     0 symmetry adapted basis functions of A2  symmetry.
 There are     3 symmetry adapted basis functions of B1  symmetry.
 There are     5 symmetry adapted basis functions of B2  symmetry.
 Integral buffers will be    262144 words long.
 Raffenetti 1 integral format.
 Two-electron integral symmetry is turned on.
    17 basis functions,    33 primitive gaussians,    17 cartesian basis functions
     9 alpha electrons        9 beta electrons
       nuclear repulsion energy        13.1972954932 Hartrees.
 NAtoms=    3 NActive=    3 NUniq=    2 SFac= 1.69D+00 NAtFMM=   80 NAOKFM=F Big=F
 One-electron integrals computed using PRISM.
 NBasis=    17 RedAO= T  NBF=     9     0     3     5
 NBsUse=    17 1.00D-06 NBFU=     9     0     3     5
 Initial guess read from the read-write file.
 B after Tr=     0.000000    0.000000    0.000000
         Rot=    1.000000    0.000000    0.000000    0.000000 Ang=   0.00 deg.
 Initial guess orbital symmetries:
       Occupied  (A1) (A1) (B2) (A1) (B1) (A1) (B2) (A1) (B1)
       Virtual   (B2) (A1) (B2) (A1) (A1) (B1) (A1) (B2)
 Harris functional with IExCor=  205 diagonalized for initial guess.
 ExpMin= 1.42D-01 ExpMax= 1.21D+03 ExpMxC= 1.21D+03 IAcc=1 IRadAn=         1 AccDes= 0.00D+00
 HarFok:  IExCor=  205 AccDes= 0.00D+00 IRadAn=         1 IDoV= 1
 ScaDFX=  1.000000  1.000000  1.000000  1.000000
 FoFCou: FMM=F IPFlag=           0 FMFlag=      100000 FMFlg1=           0
         NFxFlg=           0 DoJE=T BraDBF=F KetDBF=T FulRan=T
         Omega=  0.000000  0.000000  1.000000  0.000000  0.000000 ICntrl=     500 IOpCl=  0
         NMat0=    1 NMatS0=    1 NMatT0=    0 NMatD0=    1 NMtDS0=    0 NMtDT0=    0
         I1Cent=           4 NGrid=           0.
 Petite list used in FoFCou.
 Requested convergence on RMS density matrix=1.00D-08 within 128 cycles.
 Requested convergence on MAX density matrix=1.00D-06.
 Requested convergence on             energy=1.00D-06.
 No special actions if energy rises.
 Keep R1 ints in memory in canonical form, NReq=831531.
 SCF Done:  E(RHF) =  -396.703043450     A.U. after    8 cycles
             Convg  =    0.4917D-08             -V/T =  2.0002
 Calling FoFJK, ICntrl=      2127 FMM=F ISym2X=1 I1Cent= 0 IOpClX= 0 NMat=1 NMatS=1 NMatT=0.
 ***** Axes restored to original set *****
 -------------------------------------------------------------------
 Center     Atomic                   Forces (Hartrees/Bohr)
 Number     Number              X              Y              Z
 -------------------------------------------------------------------
      1       16          -0.016905530   -0.023920772    0.000000000
      2        1           0.021852224    0.002490584    0.000000000
      3        1          -0.004946694    0.021430188    0.000000000
 -------------------------------------------------------------------
 Cartesian Forces:  Max     0.023920772 RMS     0.014241745

 GradGradGradGradGradGradGradGradGradGradGradGradGradGradGradGradGradGrad
 Berny optimization.
 Using GEDIIS/GDIIS optimizer.
 Internal  Forces:  Max     0.021993696 RMS     0.017957782
 Search for a local minimum.
 Step number   3 out of a maximum of   20 on scan point     1 out of   121
 All quantities printed in internal units (Hartrees-Bohrs-Radians)
 Mixed Optimization -- En-DIIS/RFO-DIIS
 Update second derivatives using D2CorX and points    1    2    3
 DE= -1.44D-04 DEPred=-1.56D-04 R= 9.23D-01
 SS=  1.41D+00  RLast= 3.62D-02 DXNew= 8.4853D-01 1.0864D-01
 Trust test= 9.23D-01 RLast= 3.62D-02 DXMaxT set to 5.05D-01
 The second derivative matrix:
                          R1        R2        A1
           R1           0.29107
           R2           0.00131   0.29107
           A1           0.01697   0.01697   0.21960
 Use linear search instead of GDIIS.
     Eigenvalues ---    0.219601000.000001000.00000
 RFO step:  Lambda= 0.00000000D+00 EMin= 2.19604099D-01
 Quartic linear search produced a step of  0.00274.
 Iteration  1 RMS(Cart)=  0.00007955 RMS(Int)=  0.00000000
 Iteration  2 RMS(Cart)=  0.00000000 RMS(Int)=  0.00000000
 Iteration  1 RMS(Cart)=  0.00000000 RMS(Int)=  0.00000000
 ClnCor:  largest displacement from symmetrization is 1.49D-09 for atom     3.
 Variable       Old X    -DE/DX   Delta X   Delta X   Delta X     New X
                                 (Linear)    (Quad)   (Total)
    R1        2.47554   0.02199   0.00000   0.00000   0.00000   2.47554
    R2        2.47554   0.02199   0.00000   0.00000   0.00000   2.47554
    A1        1.68338   0.00002   0.00010   0.00000   0.00010   1.68348
         Item               Value     Threshold  Converged?
 Maximum Force            0.000022     0.000450     YES
 RMS     Force            0.000022     0.000300     YES
 Maximum Displacement     0.000084     0.001800     YES
 RMS     Displacement     0.000080     0.001200     YES
 Predicted change in Energy=-1.055972D-09
 Optimization completed.
    -- Stationary point found.
                           ----------------------------
                           !   Optimized Parameters   !
                           ! (Angstroms and Degrees)  !
 --------------------------                            --------------------------
 ! Name  Definition              Value          Derivative Info.                !
 --------------------------------------------------------------------------------
 ! R1    R(1,2)                  1.31           -DE/DX =    0.022               !
 ! R2    R(1,3)                  1.31           -DE/DX =    0.022               !
 ! A1    A(2,1,3)               96.4503         -DE/DX =    0.0                 !
 --------------------------------------------------------------------------------
 Iteration  1 RMS(Cart)=  0.08354823 RMS(Int)=  0.00076720
 Iteration  2 RMS(Cart)=  0.00100319 RMS(Int)=  0.00000043
 Iteration  3 RMS(Cart)=  0.00000040 RMS(Int)=  0.00000000
 Iteration  1 RMS(Cart)=  0.00000000 RMS(Int)=  0.00000000
 GradGradGradGradGradGradGradGradGradGradGradGradGradGradGradGradGradGrad

                          Input orientation:                          
 ---------------------------------------------------------------------
 Center     Atomic      Atomic             Coordinates (Angstroms)
 Number     Number       Type             X           Y           Z
 ---------------------------------------------------------------------
      1         16           0       -1.639002    0.342894    0.000000
      2          1           0       -0.235569    0.478823    0.000000
      3          1           0       -1.911101    1.624323    0.000000
 ---------------------------------------------------------------------
                    Distance matrix (angstroms):
                    1          2          3
     1  S    0.000000
     2  H    1.410000   0.000000
     3  H    1.310000   2.029674   0.000000
 Stoichiometry    H2S
 Framework group  CS[SG(H2S)]
 Deg. of freedom     3
 Full point group                 CS      NOp   2
 Omega: Change in point group or standard orientation.

 Old FWG=C02V [C2(S1),SGV(H2)]
 New FWG=CS   [SG(H2S1)]
 Largest Abelian subgroup         CS      NOp   2
 Largest concise Abelian subgroup C1      NOp   1
                         Standard orientation:                         
 ---------------------------------------------------------------------
 Center     Atomic      Atomic             Coordinates (Angstroms)
 Number     Number       Type             X           Y           Z
 ---------------------------------------------------------------------
      1         16           0        0.000000    0.100751    0.000000
      2          1           0        1.012063   -0.880998    0.000000
      3          1           0       -1.012063   -0.731012    0.000000
 ---------------------------------------------------------------------
 Rotational constants (GHZ):    331.0034533    239.7329751    139.0351810
 Standard basis: 3-21G (6D, 7F)
 There are    14 symmetry adapted basis functions of A'  symmetry.
 There are     3 symmetry adapted basis functions of A"  symmetry.
 Integral buffers will be    262144 words long.
 Raffenetti 1 integral format.
 Two-electron integral symmetry is turned on.
    17 basis functions,    33 primitive gaussians,    17 cartesian basis functions
     9 alpha electrons        9 beta electrons
       nuclear repulsion energy        12.7288011061 Hartrees.
 NAtoms=    3 NActive=    3 NUniq=    3 SFac= 7.50D-01 NAtFMM=   80 NAOKFM=F Big=F
 One-electron integrals computed using PRISM.
 NBasis=    17 RedAO= T  NBF=    14     3
 NBsUse=    17 1.00D-06 NBFU=    14     3
 Initial guess read from the read-write file.
 B after Tr=     0.000000    0.000000    0.000000
         Rot=    1.000000    0.000000    0.000000    0.000000 Ang=   0.00 deg.
 Initial guess orbital symmetries:
       Occupied  (A') (A") (A') (A") (A') (A") (A") (A") (A")
       Virtual   (A") (A") (A") (A") (A") (A") (A") (A")
 Harris functional with IExCor=  205 diagonalized for initial guess.
 ExpMin= 1.42D-01 ExpMax= 1.21D+03 ExpMxC= 1.21D+03 IAcc=1 IRadAn=         1 AccDes= 0.00D+00
 HarFok:  IExCor=  205 AccDes= 0.00D+00 IRadAn=         1 IDoV= 1
 ScaDFX=  1.000000  1.000000  1.000000  1.000000
 FoFCou: FMM=F IPFlag=           0 FMFlag=      100000 FMFlg1=           0
         NFxFlg=           0 DoJE=T BraDBF=F KetDBF=T FulRan=T
         Omega=  0.000000  0.000000  1.000000  0.000000  0.000000 ICntrl=     500 IOpCl=  0
         NMat0=    1 NMatS0=    1 NMatT0=    0 NMatD0=    1 NMtDS0=    0 NMtDT0=    0
         I1Cent=           4 NGrid=           0.
 Petite list used in FoFCou.
 Requested convergence on RMS density matrix=1.00D-08 within 128 cycles.
 Requested convergence on MAX density matrix=1.00D-06.
 Requested convergence on             energy=1.00D-06.
 No special actions if energy rises.
 Keep R1 ints in memory in canonical form, NReq=831515.
 An orbital has undefined symmetry, so N**3 symmetry is turned off.
 Density matrix breaks symmetry, PCut= 1.00D-04
 Density has only Abelian symmetry.
 Density matrix breaks symmetry, PCut= 1.00D-07
 Density has only Abelian symmetry.
 Density matrix breaks symmetry, PCut= 1.00D-07
 Density has only Abelian symmetry.
 Density matrix breaks symmetry, PCut= 1.00D-07
 Density has only Abelian symmetry.
 Density matrix breaks symmetry, PCut= 1.00D-07
 Density has only Abelian symmetry.
 Density matrix breaks symmetry, PCut= 1.00D-07
 Density has only Abelian symmetry.
 Density matrix breaks symmetry, PCut= 1.00D-07
 Density has only Abelian symmetry.
 Density matrix breaks symmetry, PCut= 1.00D-07
 Density has only Abelian symmetry.
 Density matrix breaks symmetry, PCut= 1.00D-07
 Density has only Abelian symmetry.
 Density matrix breaks symmetry, PCut= 1.00D-07
 Density has only Abelian symmetry.
 SCF Done:  E(RHF) =  -396.702353278     A.U. after   12 cycles
             Convg  =    0.2214D-08             -V/T =  2.0006
 Calling FoFJK, ICntrl=      2127 FMM=F ISym2X=1 I1Cent= 0 IOpClX= 0 NMat=1 NMatS=1 NMatT=0.
 ***** Axes restored to original set *****
 -------------------------------------------------------------------
 Center     Atomic                   Forces (Hartrees/Bohr)
 Number     Number              X              Y              Z
 -------------------------------------------------------------------
      1       16           0.028400039   -0.020592150    0.000000000
      2        1          -0.024994757   -0.001287978    0.000000000
      3        1          -0.003405283    0.021880128    0.000000000
 -------------------------------------------------------------------
 Cartesian Forces:  Max     0.028400039 RMS     0.016149756

 GradGradGradGradGradGradGradGradGradGradGradGradGradGradGradGradGradGrad
 Berny optimization.
 Internal  Forces:  Max     0.025002504 RMS     0.019347829
 Search for a local minimum.
 Step number   1 out of a maximum of   20 on scan point     2 out of   121
 All quantities printed in internal units (Hartrees-Bohrs-Radians)
 Mixed Optimization -- RFO/linear search
 Second derivative matrix not updated -- first step.
 The second derivative matrix:
                          R1        R2        A1
           R1           0.29107
           R2           0.00131   0.29107
           A1           0.01697   0.01697   0.21960
     Eigenvalues ---    0.219601000.000001000.00000
 RFO step:  Lambda=-4.11073786D-05 EMin= 2.19604099D-01
 Linear search not attempted -- first point.
 Iteration  1 RMS(Cart)=  0.01136189 RMS(Int)=  0.00004932
 Iteration  2 RMS(Cart)=  0.00004137 RMS(Int)=  0.00000000
 Iteration  3 RMS(Cart)=  0.00000000 RMS(Int)=  0.00000000
 Iteration  1 RMS(Cart)=  0.00000000 RMS(Int)=  0.00000000
 ClnCor:  largest displacement from symmetrization is 3.33D-16 for atom     2.
 Variable       Old X    -DE/DX   Delta X   Delta X   Delta X     New X
                                 (Linear)    (Quad)   (Total)
    R1        2.66451  -0.02500   0.00000   0.00000   0.00000   2.66451
    R2        2.47554   0.02211   0.00000   0.00000   0.00000   2.47554
    A1        1.68348  -0.00300   0.00000  -0.01368  -0.01368   1.66980
         Item               Value     Threshold  Converged?
 Maximum Force            0.003005     0.000450     NO 
 RMS     Force            0.003005     0.000300     NO 
 Maximum Displacement     0.012384     0.001800     NO 
 RMS     Displacement     0.011383     0.001200     NO 
 Predicted change in Energy=-2.055369D-05
 GradGradGradGradGradGradGradGradGradGradGradGradGradGradGradGradGradGrad

                          Input orientation:                          
 ---------------------------------------------------------------------
 Center     Atomic      Atomic             Coordinates (Angstroms)
 Number     Number       Type             X           Y           Z
 ---------------------------------------------------------------------
      1         16           0       -1.641832    0.339266    0.000000
      2          1           0       -0.239292    0.484122    0.000000
      3          1           0       -1.904548    1.622652    0.000000
 ---------------------------------------------------------------------
                    Distance matrix (angstroms):
                    1          2          3
     1  S    0.000000
     2  H    1.410000   0.000000
     3  H    1.310000   2.017257   0.000000
 Stoichiometry    H2S
 Framework group  CS[SG(H2S)]
 Deg. of freedom     3
 Full point group                 CS      NOp   2
 Largest Abelian subgroup         CS      NOp   2
 Largest concise Abelian subgroup C1      NOp   1
                         Standard orientation:                         
 ---------------------------------------------------------------------
 Center     Atomic      Atomic             Coordinates (Angstroms)
 Number     Number       Type             X           Y           Z
 ---------------------------------------------------------------------
      1         16           0        0.000000    0.101517    0.000000
      2          1           0        1.005879   -0.886565    0.000000
      3          1           0       -1.005879   -0.737713    0.000000
 ---------------------------------------------------------------------
 Rotational constants (GHZ):    326.5411726    242.3037202    139.0926453
 Standard basis: 3-21G (6D, 7F)
 There are    14 symmetry adapted basis functions of A'  symmetry.
 There are     3 symmetry adapted basis functions of A"  symmetry.
 Integral buffers will be    262144 words long.
 Raffenetti 1 integral format.
 Two-electron integral symmetry is turned on.
    17 basis functions,    33 primitive gaussians,    17 cartesian basis functions
     9 alpha electrons        9 beta electrons
       nuclear repulsion energy        12.7304059247 Hartrees.
 NAtoms=    3 NActive=    3 NUniq=    3 SFac= 7.50D-01 NAtFMM=   80 NAOKFM=F Big=F
 One-electron integrals computed using PRISM.
 NBasis=    17 RedAO= T  NBF=    14     3
 NBsUse=    17 1.00D-06 NBFU=    14     3
 Initial guess read from the read-write file.
 B after Tr=     0.000000    0.000000    0.000000
         Rot=    1.000000    0.000000    0.000000    0.000000 Ang=   0.00 deg.
 Initial guess orbital symmetries:
       Occupied  (A') (A') (A') (A') (A") (A') (A') (A') (A")
       Virtual   (A') (A') (A') (A') (A") (A') (A') (A')
 Requested convergence on RMS density matrix=1.00D-08 within 128 cycles.
 Requested convergence on MAX density matrix=1.00D-06.
 Requested convergence on             energy=1.00D-06.
 No special actions if energy rises.
 Keep R1 ints in memory in canonical form, NReq=831515.
 SCF Done:  E(RHF) =  -396.702374851     A.U. after    7 cycles
             Convg  =    0.9424D-08             -V/T =  2.0006
 Calling FoFJK, ICntrl=      2127 FMM=F ISym2X=1 I1Cent= 0 IOpClX= 0 NMat=1 NMatS=1 NMatT=0.
 ***** Axes restored to original set *****
 -------------------------------------------------------------------
 Center     Atomic                   Forces (Hartrees/Bohr)
 Number     Number              X              Y              Z
 -------------------------------------------------------------------
      1       16           0.029074413   -0.019359517    0.000000000
      2        1          -0.024661175   -0.002492202    0.000000000
      3        1          -0.004413238    0.021851719    0.000000000
 -------------------------------------------------------------------
 Cartesian Forces:  Max     0.029074413 RMS     0.016095104

 GradGradGradGradGradGradGradGradGradGradGradGradGradGradGradGradGradGrad
 Berny optimization.
 Using GEDIIS/GDIIS optimizer.
 Internal  Forces:  Max     0.024786722 RMS     0.019247282
 Search for a local minimum.
 Step number   2 out of a maximum of   20 on scan point     2 out of   121
 All quantities printed in internal units (Hartrees-Bohrs-Radians)
 Mixed Optimization -- En-DIIS/RFO-DIIS
 Update second derivatives using D2CorX and points    1    2
 DE= -2.16D-05 DEPred=-2.06D-05 R= 1.05D+00
 SS=  1.41D+00  RLast= 1.37D-02 DXNew= 8.4853D-01 4.1037D-02
 Trust test= 1.05D+00 RLast= 1.37D-02 DXMaxT set to 5.05D-01
 The second derivative matrix:
                          R1        R2        A1
           R1           0.29095
           R2           0.00101   0.29061
           A1           0.01577   0.01335   0.20902
 Use linear search instead of GDIIS.
     Eigenvalues ---    0.209021000.000001000.00000
 RFO step:  Lambda= 0.00000000D+00 EMin= 2.09019380D-01
 Quartic linear search produced a step of  0.05060.
 Iteration  1 RMS(Cart)=  0.00057697 RMS(Int)=  0.00000013
 Iteration  2 RMS(Cart)=  0.00000011 RMS(Int)=  0.00000000
 Iteration  1 RMS(Cart)=  0.00000000 RMS(Int)=  0.00000000
 ClnCor:  largest displacement from symmetrization is 4.44D-16 for atom     3.
 Variable       Old X    -DE/DX   Delta X   Delta X   Delta X     New X
                                 (Linear)    (Quad)   (Total)
    R1        2.66451  -0.02479   0.00000   0.00000   0.00000   2.66451
    R2        2.47554   0.02229   0.00000   0.00000   0.00000   2.47554
    A1        1.66980  -0.00015  -0.00069   0.00000  -0.00069   1.66910
         Item               Value     Threshold  Converged?
 Maximum Force            0.000145     0.000450     YES
 RMS     Force            0.000145     0.000300     YES
 Maximum Displacement     0.000628     0.001800     YES
 RMS     Displacement     0.000577     0.001200     YES
 Predicted change in Energy=-5.053778D-08
 Optimization completed.
    -- Stationary point found.
                           ----------------------------
                           !   Optimized Parameters   !
                           ! (Angstroms and Degrees)  !
 --------------------------                            --------------------------
 ! Name  Definition              Value          Derivative Info.                !
 --------------------------------------------------------------------------------
 ! R1    R(1,2)                  1.41           -DE/DX =   -0.0248              !
 ! R2    R(1,3)                  1.31           -DE/DX =    0.0223              !
 ! A1    A(2,1,3)               95.6723         -DE/DX =   -0.0001              !
 --------------------------------------------------------------------------------
 Iteration  1 RMS(Cart)=  0.08391219 RMS(Int)=  0.00066962
 Iteration  2 RMS(Cart)=  0.00090927 RMS(Int)=  0.00000034
 Iteration  3 RMS(Cart)=  0.00000032 RMS(Int)=  0.00000000
 Iteration  1 RMS(Cart)=  0.00000000 RMS(Int)=  0.00000000
 GradGradGradGradGradGradGradGradGradGradGradGradGradGradGradGradGradGrad

                          Input orientation:                          
 ---------------------------------------------------------------------
 Center     Atomic      Atomic             Coordinates (Angstroms)
 Number     Number       Type             X           Y           Z
 ---------------------------------------------------------------------
      1         16           0       -1.682823    0.342384    0.000000
      2          1           0       -0.178545    0.473723    0.000000
      3          1           0       -1.924304    1.629934    0.000000
 ---------------------------------------------------------------------
                    Distance matrix (angstroms):
                    1          2          3
     1  S    0.000000
     2  H    1.510000   0.000000
     3  H    1.310000   2.093919   0.000000
 Stoichiometry    H2S
 Framework group  CS[SG(H2S)]
 Deg. of freedom     3
 Full point group                 CS      NOp   2
 Largest Abelian subgroup         CS      NOp   2
 Largest concise Abelian subgroup C1      NOp   1
                         Standard orientation:                         
 ---------------------------------------------------------------------
 Center     Atomic      Atomic             Coordinates (Angstroms)
 Number     Number       Type             X           Y           Z
 ---------------------------------------------------------------------
      1         16           0        0.000000    0.105525    0.000000
      2          1           0        1.036380   -0.992663    0.000000
      3          1           0       -1.036380   -0.695735    0.000000
 ---------------------------------------------------------------------
 Rotational constants (GHZ):    318.2538728    216.7450365    128.9347437
 Standard basis: 3-21G (6D, 7F)
 There are    14 symmetry adapted basis functions of A'  symmetry.
 There are     3 symmetry adapted basis functions of A"  symmetry.
 Integral buffers will be    262144 words long.
 Raffenetti 1 integral format.
 Two-electron integral symmetry is turned on.
    17 basis functions,    33 primitive gaussians,    17 cartesian basis functions
     9 alpha electrons        9 beta electrons
       nuclear repulsion energy        12.3231297268 Hartrees.
 NAtoms=    3 NActive=    3 NUniq=    3 SFac= 7.50D-01 NAtFMM=   80 NAOKFM=F Big=F
 One-electron integrals computed using PRISM.
 NBasis=    17 RedAO= T  NBF=    14     3
 NBsUse=    17 1.00D-06 NBFU=    14     3
 Initial guess read from the read-write file.
 B after Tr=     0.000000    0.000000    0.000000
         Rot=    1.000000    0.000000    0.000000    0.000000 Ang=   0.00 deg.
 Initial guess orbital symmetries:
       Occupied  (A') (A') (A') (A') (A") (A') (A') (A') (A")
       Virtual   (A') (A') (A') (A') (A") (A') (A') (A')
 Harris functional with IExCor=  205 diagonalized for initial guess.
 ExpMin= 1.42D-01 ExpMax= 1.21D+03 ExpMxC= 1.21D+03 IAcc=1 IRadAn=         1 AccDes= 0.00D+00
 HarFok:  IExCor=  205 AccDes= 0.00D+00 IRadAn=         1 IDoV= 1
 ScaDFX=  1.000000  1.000000  1.000000  1.000000
 FoFCou: FMM=F IPFlag=           0 FMFlag=      100000 FMFlg1=           0
         NFxFlg=           0 DoJE=T BraDBF=F KetDBF=T FulRan=T
         Omega=  0.000000  0.000000  1.000000  0.000000  0.000000 ICntrl=     500 IOpCl=  0
         NMat0=    1 NMatS0=    1 NMatT0=    0 NMatD0=    1 NMtDS0=    0 NMtDT0=    0
         I1Cent=           4 NGrid=           0.
 Petite list used in FoFCou.
 Requested convergence on RMS density matrix=1.00D-08 within 128 cycles.
 Requested convergence on MAX density matrix=1.00D-06.
 Requested convergence on             energy=1.00D-06.
 No special actions if energy rises.
 Keep R1 ints in memory in canonical form, NReq=831515.
 SCF Done:  E(RHF) =  -396.694911090     A.U. after    9 cycles
             Convg  =    0.6028D-08             -V/T =  2.0008
 Calling FoFJK, ICntrl=      2127 FMM=F ISym2X=1 I1Cent= 0 IOpClX= 0 NMat=1 NMatS=1 NMatT=0.
 ***** Axes restored to original set *****
 -------------------------------------------------------------------
 Center     Atomic                   Forces (Hartrees/Bohr)
 Number     Number              X              Y              Z
 -------------------------------------------------------------------
      1       16           0.054585098   -0.018762743    0.000000000
      2        1          -0.051602019   -0.003486952    0.000000000
      3        1          -0.002983079    0.022249695    0.000000000
 -------------------------------------------------------------------
 Cartesian Forces:  Max     0.054585098 RMS     0.026895783

 GradGradGradGradGradGradGradGradGradGradGradGradGradGradGradGradGradGrad
 Berny optimization.
 Internal  Forces:  Max     0.051709746 RMS     0.032582508
 Search for a local minimum.
 Step number   1 out of a maximum of   20 on scan point     3 out of   121
 All quantities printed in internal units (Hartrees-Bohrs-Radians)
 Mixed Optimization -- RFO/linear search
 Second derivative matrix not updated -- first step.
 The second derivative matrix:
                          R1        R2        A1
           R1           0.29095
           R2           0.00101   0.29061
           A1           0.01577   0.01335   0.20902
     Eigenvalues ---    0.209021000.000001000.00000
 RFO step:  Lambda=-4.00997039D-05 EMin= 2.09019380D-01
 Linear search not attempted -- first point.
 Iteration  1 RMS(Cart)=  0.01190623 RMS(Int)=  0.00005310
 Iteration  2 RMS(Cart)=  0.00004410 RMS(Int)=  0.00000000
 Iteration  3 RMS(Cart)=  0.00000000 RMS(Int)=  0.00000000
 Iteration  1 RMS(Cart)=  0.00000000 RMS(Int)=  0.00000000
 ClnCor:  largest displacement from symmetrization is 1.57D-16 for atom     2.
 Variable       Old X    -DE/DX   Delta X   Delta X   Delta X     New X
                                 (Linear)    (Quad)   (Total)
    R1        2.85349  -0.05171   0.00000   0.00000   0.00000   2.85349
    R2        2.47554   0.02242   0.00000   0.00000   0.00000   2.47554
    A1        1.66910  -0.00290   0.00000  -0.01385  -0.01385   1.65526
         Item               Value     Threshold  Converged?
 Maximum Force            0.002895     0.000450     NO 
 RMS     Force            0.002895     0.000300     NO 
 Maximum Displacement     0.013270     0.001800     NO 
 RMS     Displacement     0.011928     0.001200     NO 
 Predicted change in Energy=-2.004985D-05
 GradGradGradGradGradGradGradGradGradGradGradGradGradGradGradGradGradGrad

                          Input orientation:                          
 ---------------------------------------------------------------------
 Center     Atomic      Atomic             Coordinates (Angstroms)
 Number     Number       Type             X           Y           Z
 ---------------------------------------------------------------------
      1         16           0       -1.685927    0.338762    0.000000
      2          1           0       -0.182463    0.479108    0.000000
      3          1           0       -1.917282    1.628171    0.000000
 ---------------------------------------------------------------------
                    Distance matrix (angstroms):
                    1          2          3
     1  S    0.000000
     2  H    1.510000   0.000000
     3  H    1.310000   2.080851   0.000000
 Stoichiometry    H2S
 Framework group  CS[SG(H2S)]
 Deg. of freedom     3
 Full point group                 CS      NOp   2
 Largest Abelian subgroup         CS      NOp   2
 Largest concise Abelian subgroup C1      NOp   1
                         Standard orientation:                         
 ---------------------------------------------------------------------
 Center     Atomic      Atomic             Coordinates (Angstroms)
 Number     Number       Type             X           Y           Z
 ---------------------------------------------------------------------
      1         16           0        0.000000    0.106320    0.000000
      2          1           0        1.029938   -0.997912    0.000000
      3          1           0       -1.029938   -0.703204    0.000000
 ---------------------------------------------------------------------
 Rotational constants (GHZ):    314.9736138    218.4471583    128.9883980
 Standard basis: 3-21G (6D, 7F)
 There are    14 symmetry adapted basis functions of A'  symmetry.
 There are     3 symmetry adapted basis functions of A"  symmetry.
 Integral buffers will be    262144 words long.
 Raffenetti 1 integral format.
 Two-electron integral symmetry is turned on.
    17 basis functions,    33 primitive gaussians,    17 cartesian basis functions
     9 alpha electrons        9 beta electrons
       nuclear repulsion energy        12.3247168860 Hartrees.
 NAtoms=    3 NActive=    3 NUniq=    3 SFac= 7.50D-01 NAtFMM=   80 NAOKFM=F Big=F
 One-electron integrals computed using PRISM.
 NBasis=    17 RedAO= T  NBF=    14     3
 NBsUse=    17 1.00D-06 NBFU=    14     3
 Initial guess read from the read-write file.
 B after Tr=     0.000000    0.000000    0.000000
         Rot=    1.000000    0.000000    0.000000    0.000000 Ang=   0.00 deg.
 Initial guess orbital symmetries:
       Occupied  (A') (A') (A') (A') (A") (A') (A') (A') (A")
       Virtual   (A') (A') (A') (A') (A") (A') (A') (A')
 Requested convergence on RMS density matrix=1.00D-08 within 128 cycles.
 Requested convergence on MAX density matrix=1.00D-06.
 Requested convergence on             energy=1.00D-06.
 No special actions if energy rises.
 Keep R1 ints in memory in canonical form, NReq=831515.
 SCF Done:  E(RHF) =  -396.694931938     A.U. after    7 cycles
             Convg  =    0.7738D-08             -V/T =  2.0008
 Calling FoFJK, ICntrl=      2127 FMM=F ISym2X=1 I1Cent= 0 IOpClX= 0 NMat=1 NMatS=1 NMatT=0.
 ***** Axes restored to original set *****
 -------------------------------------------------------------------
 Center     Atomic                   Forces (Hartrees/Bohr)
 Number     Number              X              Y              Z
 -------------------------------------------------------------------
      1       16           0.055228676   -0.017476126    0.000000000
      2        1          -0.051286907   -0.004748209    0.000000000
      3        1          -0.003941768    0.022224335    0.000000000
 -------------------------------------------------------------------
 Cartesian Forces:  Max     0.055228676 RMS     0.026911321

 GradGradGradGradGradGradGradGradGradGradGradGradGradGradGradGradGradGrad
 Berny optimization.
 Using GEDIIS/GDIIS optimizer.
 Internal  Forces:  Max     0.051506221 RMS     0.032467213
 Search for a local minimum.
 Step number   2 out of a maximum of   20 on scan point     3 out of   121
 All quantities printed in internal units (Hartrees-Bohrs-Radians)
 Mixed Optimization -- En-DIIS/RFO-DIIS
 Update second derivatives using D2CorX and points    1    2
 DE= -2.08D-05 DEPred=-2.00D-05 R= 1.04D+00
 SS=  1.41D+00  RLast= 1.38D-02 DXNew= 8.4853D-01 4.1545D-02
 Trust test= 1.04D+00 RLast= 1.38D-02 DXMaxT set to 5.05D-01
 The second derivative matrix:
                          R1        R2        A1
           R1           0.29083
           R2           0.00081   0.29036
           A1           0.01470   0.01104   0.20099
 Use linear search instead of GDIIS.
     Eigenvalues ---    0.200991000.000001000.00000
 RFO step:  Lambda= 0.00000000D+00 EMin= 2.00986630D-01
 Quartic linear search produced a step of  0.03999.
 Iteration  1 RMS(Cart)=  0.00047781 RMS(Int)=  0.00000008
 Iteration  2 RMS(Cart)=  0.00000007 RMS(Int)=  0.00000000
 Iteration  1 RMS(Cart)=  0.00000000 RMS(Int)=  0.00000000
 ClnCor:  largest displacement from symmetrization is 5.47D-16 for atom     2.
 Variable       Old X    -DE/DX   Delta X   Delta X   Delta X     New X
                                 (Linear)    (Quad)   (Total)
    R1        2.85349  -0.05151   0.00000   0.00000   0.00000   2.85349
    R2        2.47554   0.02257   0.00000   0.00000   0.00000   2.47554
    A1        1.65526  -0.00011  -0.00055   0.00000  -0.00055   1.65470
         Item               Value     Threshold  Converged?
 Maximum Force            0.000112     0.000450     YES
 RMS     Force            0.000112     0.000300     YES
 Maximum Displacement     0.000532     0.001800     YES
 RMS     Displacement     0.000478     0.001200     YES
 Predicted change in Energy=-3.109108D-08
 Optimization completed.
    -- Stationary point found.
                           ----------------------------
                           !   Optimized Parameters   !
                           ! (Angstroms and Degrees)  !
 --------------------------                            --------------------------
 ! Name  Definition              Value          Derivative Info.                !
 --------------------------------------------------------------------------------
 ! R1    R(1,2)                  1.51           -DE/DX =   -0.0515              !
 ! R2    R(1,3)                  1.31           -DE/DX =    0.0226              !
 ! A1    A(2,1,3)               94.8392         -DE/DX =   -0.0001              !
 --------------------------------------------------------------------------------
 Iteration  1 RMS(Cart)=  0.08425118 RMS(Int)=  0.00058706
 Iteration  2 RMS(Cart)=  0.00082463 RMS(Int)=  0.00000027
 Iteration  3 RMS(Cart)=  0.00000025 RMS(Int)=  0.00000000
 Iteration  1 RMS(Cart)=  0.00000000 RMS(Int)=  0.00000000
 GradGradGradGradGradGradGradGradGradGradGradGradGradGradGradGradGradGrad

                          Input orientation:                          
 ---------------------------------------------------------------------
 Center     Atomic      Atomic             Coordinates (Angstroms)
 Number     Number       Type             X           Y           Z
 ---------------------------------------------------------------------
      1         16           0       -1.726433    0.342473    0.000000
      2          1           0       -0.121356    0.468272    0.000000
      3          1           0       -1.937883    1.635295    0.000000
 ---------------------------------------------------------------------
                    Distance matrix (angstroms):
                    1          2          3
     1  S    0.000000
     2  H    1.610000   0.000000
     3  H    1.310000   2.159101   0.000000
 Stoichiometry    H2S
 Framework group  CS[SG(H2S)]
 Deg. of freedom     3
 Full point group                 CS      NOp   2
 Largest Abelian subgroup         CS      NOp   2
 Largest concise Abelian subgroup C1      NOp   1
                         Standard orientation:                         
 ---------------------------------------------------------------------
 Center     Atomic      Atomic             Coordinates (Angstroms)
 Number     Number       Type             X           Y           Z
 ---------------------------------------------------------------------
      1         16           0        0.000000    0.110480    0.000000
      2          1           0        1.056844   -1.104091    0.000000
      3          1           0       -1.056844   -0.663588    0.000000
 ---------------------------------------------------------------------
 Rotational constants (GHZ):    311.5021951    194.2768345    119.6523716
 Standard basis: 3-21G (6D, 7F)
 There are    14 symmetry adapted basis functions of A'  symmetry.
 There are     3 symmetry adapted basis functions of A"  symmetry.
 Integral buffers will be    262144 words long.
 Raffenetti 1 integral format.
 Two-electron integral symmetry is turned on.
    17 basis functions,    33 primitive gaussians,    17 cartesian basis functions
     9 alpha electrons        9 beta electrons
       nuclear repulsion energy        11.9672285300 Hartrees.
 NAtoms=    3 NActive=    3 NUniq=    3 SFac= 7.50D-01 NAtFMM=   80 NAOKFM=F Big=F
 One-electron integrals computed using PRISM.
 NBasis=    17 RedAO= T  NBF=    14     3
 NBsUse=    17 1.00D-06 NBFU=    14     3
 Initial guess read from the read-write file.
 B after Tr=     0.000000    0.000000    0.000000
         Rot=    1.000000    0.000000    0.000000    0.000000 Ang=   0.00 deg.
 Initial guess orbital symmetries:
       Occupied  (A') (A') (A') (A') (A") (A') (A') (A') (A")
       Virtual   (A') (A') (A') (A') (A") (A') (A') (A')
 Harris functional with IExCor=  205 diagonalized for initial guess.
 ExpMin= 1.42D-01 ExpMax= 1.21D+03 ExpMxC= 1.21D+03 IAcc=1 IRadAn=         1 AccDes= 0.00D+00
 HarFok:  IExCor=  205 AccDes= 0.00D+00 IRadAn=         1 IDoV= 1
 ScaDFX=  1.000000  1.000000  1.000000  1.000000
 FoFCou: FMM=F IPFlag=           0 FMFlag=      100000 FMFlg1=           0
         NFxFlg=           0 DoJE=T BraDBF=F KetDBF=T FulRan=T
         Omega=  0.000000  0.000000  1.000000  0.000000  0.000000 ICntrl=     500 IOpCl=  0
         NMat0=    1 NMatS0=    1 NMatT0=    0 NMatD0=    1 NMtDS0=    0 NMtDT0=    0
         I1Cent=           4 NGrid=           0.
 Petite list used in FoFCou.
 Requested convergence on RMS density matrix=1.00D-08 within 128 cycles.
 Requested convergence on MAX density matrix=1.00D-06.
 Requested convergence on             energy=1.00D-06.
 No special actions if energy rises.
 Keep R1 ints in memory in canonical form, NReq=831515.
 SCF Done:  E(RHF) =  -396.683609936     A.U. after    9 cycles
             Convg  =    0.6103D-08             -V/T =  2.0010
 Calling FoFJK, ICntrl=      2127 FMM=F ISym2X=1 I1Cent= 0 IOpClX= 0 NMat=1 NMatS=1 NMatT=0.
 ***** Axes restored to original set *****
 -------------------------------------------------------------------
 Center     Atomic                   Forces (Hartrees/Bohr)
 Number     Number              X              Y              Z
 -------------------------------------------------------------------
      1       16           0.069389528   -0.018212264    0.000000000
      2        1          -0.066769176   -0.004368859    0.000000000
      3        1          -0.002620352    0.022581123    0.000000000
 -------------------------------------------------------------------
 Cartesian Forces:  Max     0.069389528 RMS     0.033566809

 GradGradGradGradGradGradGradGradGradGradGradGradGradGradGradGradGradGrad
 Berny optimization.
 Internal  Forces:  Max     0.066906408 RMS     0.040820709
 Search for a local minimum.
 Step number   1 out of a maximum of   20 on scan point     4 out of   121
 All quantities printed in internal units (Hartrees-Bohrs-Radians)
 Mixed Optimization -- RFO/linear search
 Second derivative matrix not updated -- first step.
 The second derivative matrix:
                          R1        R2        A1
           R1           0.29083
           R2           0.00081   0.29036
           A1           0.01470   0.01104   0.20099
     Eigenvalues ---    0.200991000.000001000.00000
 RFO step:  Lambda=-3.41869099D-05 EMin= 2.00986630D-01
 Linear search not attempted -- first point.
 Iteration  1 RMS(Cart)=  0.01155818 RMS(Int)=  0.00004968
 Iteration  2 RMS(Cart)=  0.00004075 RMS(Int)=  0.00000000
 Iteration  3 RMS(Cart)=  0.00000000 RMS(Int)=  0.00000000
 Iteration  1 RMS(Cart)=  0.00000000 RMS(Int)=  0.00000000
 ClnCor:  largest displacement from symmetrization is 7.22D-16 for atom     2.
 Variable       Old X    -DE/DX   Delta X   Delta X   Delta X     New X
                                 (Linear)    (Quad)   (Total)
    R1        3.04246  -0.06691   0.00000   0.00000   0.00000   3.04246
    R2        2.47554   0.02271   0.00000   0.00000   0.00000   2.47554
    A1        1.65470  -0.00262   0.00000  -0.01304  -0.01304   1.64166
         Item               Value     Threshold  Converged?
 Maximum Force            0.002621     0.000450     NO 
 RMS     Force            0.002621     0.000300     NO 
 Maximum Displacement     0.013137     0.001800     NO 
 RMS     Displacement     0.011578     0.001200     NO 
 Predicted change in Energy=-1.709345D-05
 GradGradGradGradGradGradGradGradGradGradGradGradGradGradGradGradGradGrad

                          Input orientation:                          
 ---------------------------------------------------------------------
 Center     Atomic      Atomic             Coordinates (Angstroms)
 Number     Number       Type             X           Y           Z
 ---------------------------------------------------------------------
      1         16           0       -1.729569    0.339132    0.000000
      2          1           0       -0.125172    0.473344    0.000000
      3          1           0       -1.930931    1.633564    0.000000
 ---------------------------------------------------------------------
                    Distance matrix (angstroms):
                    1          2          3
     1  S    0.000000
     2  H    1.610000   0.000000
     3  H    1.310000   2.146363   0.000000
 Stoichiometry    H2S
 Framework group  CS[SG(H2S)]
 Deg. of freedom     3
 Full point group                 CS      NOp   2
 Largest Abelian subgroup         CS      NOp   2
 Largest concise Abelian subgroup C1      NOp   1
                         Standard orientation:                         
 ---------------------------------------------------------------------
 Center     Atomic      Atomic             Coordinates (Angstroms)
 Number     Number       Type             X           Y           Z
 ---------------------------------------------------------------------
      1         16           0        0.000000    0.111243    0.000000
      2          1           0        1.050653   -1.108686    0.000000
      3          1           0       -1.050653   -0.671207    0.000000
 ---------------------------------------------------------------------
 Rotational constants (GHZ):    309.2907683    195.2706248    119.6988164
 Standard basis: 3-21G (6D, 7F)
 There are    14 symmetry adapted basis functions of A'  symmetry.
 There are     3 symmetry adapted basis functions of A"  symmetry.
 Integral buffers will be    262144 words long.
 Raffenetti 1 integral format.
 Two-electron integral symmetry is turned on.
    17 basis functions,    33 primitive gaussians,    17 cartesian basis functions
     9 alpha electrons        9 beta electrons
       nuclear repulsion energy        11.9686829838 Hartrees.
 NAtoms=    3 NActive=    3 NUniq=    3 SFac= 7.50D-01 NAtFMM=   80 NAOKFM=F Big=F
 One-electron integrals computed using PRISM.
 NBasis=    17 RedAO= T  NBF=    14     3
 NBsUse=    17 1.00D-06 NBFU=    14     3
 Initial guess read from the read-write file.
 B after Tr=     0.000000    0.000000    0.000000
         Rot=    1.000000    0.000000    0.000000    0.000000 Ang=   0.00 deg.
 Initial guess orbital symmetries:
       Occupied  (A') (A') (A') (A') (A") (A') (A') (A') (A")
       Virtual   (A') (A') (A') (A') (A") (A') (A') (A')
 Requested convergence on RMS density matrix=1.00D-08 within 128 cycles.
 Requested convergence on MAX density matrix=1.00D-06.
 Requested convergence on             energy=1.00D-06.
 No special actions if energy rises.
 Keep R1 ints in memory in canonical form, NReq=831515.
 SCF Done:  E(RHF) =  -396.683627824     A.U. after    7 cycles
             Convg  =    0.9661D-08             -V/T =  2.0010
 Calling FoFJK, ICntrl=      2127 FMM=F ISym2X=1 I1Cent= 0 IOpClX= 0 NMat=1 NMatS=1 NMatT=0.
 ***** Axes restored to original set *****
 -------------------------------------------------------------------
 Center     Atomic                   Forces (Hartrees/Bohr)
 Number     Number              X              Y              Z
 -------------------------------------------------------------------
      1       16           0.069969702   -0.017036587    0.000000000
      2        1          -0.066508780   -0.005524350    0.000000000
      3        1          -0.003460921    0.022560938    0.000000000
 -------------------------------------------------------------------
 Cartesian Forces:  Max     0.069969702 RMS     0.033600454

 GradGradGradGradGradGradGradGradGradGradGradGradGradGradGradGradGradGrad
 Berny optimization.
 Using GEDIIS/GDIIS optimizer.
 Internal  Forces:  Max     0.066737807 RMS     0.040722314
 Search for a local minimum.
 Step number   2 out of a maximum of   20 on scan point     4 out of   121
 All quantities printed in internal units (Hartrees-Bohrs-Radians)
 Mixed Optimization -- En-DIIS/RFO-DIIS
 Update second derivatives using D2CorX and points    1    2
 DE= -1.79D-05 DEPred=-1.71D-05 R= 1.05D+00
 SS=  1.41D+00  RLast= 1.30D-02 DXNew= 8.4853D-01 3.9120D-02
 Trust test= 1.05D+00 RLast= 1.30D-02 DXMaxT set to 5.05D-01
 The second derivative matrix:
                          R1        R2        A1
           R1           0.29063
           R2           0.00060   0.29017
           A1           0.01293   0.00896   0.19189
 Use linear search instead of GDIIS.
     Eigenvalues ---    0.191891000.000001000.00000
 RFO step:  Lambda= 0.00000000D+00 EMin= 1.91889387D-01
 Quartic linear search produced a step of  0.04740.
 Iteration  1 RMS(Cart)=  0.00054966 RMS(Int)=  0.00000011
 Iteration  2 RMS(Cart)=  0.00000009 RMS(Int)=  0.00000000
 Iteration  1 RMS(Cart)=  0.00000000 RMS(Int)=  0.00000000
 ClnCor:  largest displacement from symmetrization is 2.48D-16 for atom     2.
 Variable       Old X    -DE/DX   Delta X   Delta X   Delta X     New X
                                 (Linear)    (Quad)   (Total)
    R1        3.04246  -0.06674   0.00000   0.00000   0.00000   3.04246
    R2        2.47554   0.02282   0.00000   0.00000   0.00000   2.47554
    A1        1.64166  -0.00012  -0.00062   0.00000  -0.00062   1.64104
         Item               Value     Threshold  Converged?
 Maximum Force            0.000119     0.000450     YES
 RMS     Force            0.000119     0.000300     YES
 Maximum Displacement     0.000624     0.001800     YES
 RMS     Displacement     0.000550     0.001200     YES
 Predicted change in Energy=-3.694322D-08
 Optimization completed.
    -- Stationary point found.
                           ----------------------------
                           !   Optimized Parameters   !
                           ! (Angstroms and Degrees)  !
 --------------------------                            --------------------------
 ! Name  Definition              Value          Derivative Info.                !
 --------------------------------------------------------------------------------
 ! R1    R(1,2)                  1.61           -DE/DX =   -0.0667              !
 ! R2    R(1,3)                  1.31           -DE/DX =    0.0228              !
 ! A1    A(2,1,3)               94.0603         -DE/DX =   -0.0001              !
 --------------------------------------------------------------------------------
 Iteration  1 RMS(Cart)=  0.08456835 RMS(Int)=  0.00051658
 Iteration  2 RMS(Cart)=  0.00074803 RMS(Int)=  0.00000022
 Iteration  3 RMS(Cart)=  0.00000020 RMS(Int)=  0.00000000
 Iteration  1 RMS(Cart)=  0.00000000 RMS(Int)=  0.00000000
 GradGradGradGradGradGradGradGradGradGradGradGradGradGradGradGradGradGrad

                          Input orientation:                          
 ---------------------------------------------------------------------
 Center     Atomic      Atomic             Coordinates (Angstroms)
 Number     Number       Type             X           Y           Z
 ---------------------------------------------------------------------
      1         16           0       -1.769653    0.343314    0.000000
      2          1           0       -0.063790    0.462198    0.000000
      3          1           0       -1.952229    1.640529    0.000000
 ---------------------------------------------------------------------
                    Distance matrix (angstroms):
                    1          2          3
     1  S    0.000000
     2  H    1.710000   0.000000
     3  H    1.310000   2.225908   0.000000
 Stoichiometry    H2S
 Framework group  CS[SG(H2S)]
 Deg. of freedom     3
 Full point group                 CS      NOp   2
 Largest Abelian subgroup         CS      NOp   2
 Largest concise Abelian subgroup C1      NOp   1
                         Standard orientation:                         
 ---------------------------------------------------------------------
 Center     Atomic      Atomic             Coordinates (Angstroms)
 Number     Number       Type             X           Y           Z
 ---------------------------------------------------------------------
      1         16           0        0.000000    0.115547    0.000000
      2          1           0        1.074398   -1.214780    0.000000
      3          1           0       -1.074398   -0.633966    0.000000
 ---------------------------------------------------------------------
 Rotational constants (GHZ):    307.6941302    173.9827749    111.1398077
 Standard basis: 3-21G (6D, 7F)
 There are    14 symmetry adapted basis functions of A'  symmetry.
 There are     3 symmetry adapted basis functions of A"  symmetry.
 Integral buffers will be    262144 words long.
 Raffenetti 1 integral format.
 Two-electron integral symmetry is turned on.
    17 basis functions,    33 primitive gaussians,    17 cartesian basis functions
     9 alpha electrons        9 beta electrons
       nuclear repulsion energy        11.6523342580 Hartrees.
 NAtoms=    3 NActive=    3 NUniq=    3 SFac= 7.50D-01 NAtFMM=   80 NAOKFM=F Big=F
 One-electron integrals computed using PRISM.
 NBasis=    17 RedAO= T  NBF=    14     3
 NBsUse=    17 1.00D-06 NBFU=    14     3
 Initial guess read from the read-write file.
 B after Tr=     0.000000    0.000000    0.000000
         Rot=    1.000000    0.000000    0.000000    0.000000 Ang=   0.00 deg.
 Initial guess orbital symmetries:
       Occupied  (A') (A') (A') (A') (A") (A') (A') (A') (A")
       Virtual   (A') (A') (A') (A') (A") (A') (A') (A')
 Harris functional with IExCor=  205 diagonalized for initial guess.
 ExpMin= 1.42D-01 ExpMax= 1.21D+03 ExpMxC= 1.21D+03 IAcc=1 IRadAn=         1 AccDes= 0.00D+00
 HarFok:  IExCor=  205 AccDes= 0.00D+00 IRadAn=         1 IDoV= 1
 ScaDFX=  1.000000  1.000000  1.000000  1.000000
 FoFCou: FMM=F IPFlag=           0 FMFlag=      100000 FMFlg1=           0
         NFxFlg=           0 DoJE=T BraDBF=F KetDBF=T FulRan=T
         Omega=  0.000000  0.000000  1.000000  0.000000  0.000000 ICntrl=     500 IOpCl=  0
         NMat0=    1 NMatS0=    1 NMatT0=    0 NMatD0=    1 NMtDS0=    0 NMtDT0=    0
         I1Cent=           4 NGrid=           0.
 Petite list used in FoFCou.
 Requested convergence on RMS density matrix=1.00D-08 within 128 cycles.
 Requested convergence on MAX density matrix=1.00D-06.
 Requested convergence on             energy=1.00D-06.
 No special actions if energy rises.
 Keep R1 ints in memory in canonical form, NReq=831515.
 SCF Done:  E(RHF) =  -396.670102891     A.U. after    9 cycles
             Convg  =    0.6073D-08             -V/T =  2.0012
 Calling FoFJK, ICntrl=      2127 FMM=F ISym2X=1 I1Cent= 0 IOpClX= 0 NMat=1 NMatS=1 NMatT=0.
 ***** Axes restored to original set *****
 -------------------------------------------------------------------
 Center     Atomic                   Forces (Hartrees/Bohr)
 Number     Number              X              Y              Z
 -------------------------------------------------------------------
      1       16           0.077753007   -0.018323661    0.000000000
      2        1          -0.075454075   -0.004557745    0.000000000
      3        1          -0.002298932    0.022881407    0.000000000
 -------------------------------------------------------------------
 Cartesian Forces:  Max     0.077753007 RMS     0.037452520

 GradGradGradGradGradGradGradGradGradGradGradGradGradGradGradGradGradGrad
 Berny optimization.
 Internal  Forces:  Max     0.075588371 RMS     0.045631554
 Search for a local minimum.
 Step number   1 out of a maximum of   20 on scan point     5 out of   121
 All quantities printed in internal units (Hartrees-Bohrs-Radians)
 Mixed Optimization -- RFO/linear search
 Second derivative matrix not updated -- first step.
 The second derivative matrix:
                          R1        R2        A1
           R1           0.29063
           R2           0.00060   0.29017
           A1           0.01293   0.00896   0.19189
     Eigenvalues ---    0.191891000.000001000.00000
 RFO step:  Lambda=-2.65935082D-05 EMin= 1.91889387D-01
 Linear search not attempted -- first point.
 Iteration  1 RMS(Cart)=  0.01071714 RMS(Int)=  0.00004280
 Iteration  2 RMS(Cart)=  0.00003462 RMS(Int)=  0.00000000
 Iteration  3 RMS(Cart)=  0.00000000 RMS(Int)=  0.00000000
 Iteration  1 RMS(Cart)=  0.00000000 RMS(Int)=  0.00000000
 ClnCor:  largest displacement from symmetrization is 1.65D-15 for atom     2.
 Variable       Old X    -DE/DX   Delta X   Delta X   Delta X     New X
                                 (Linear)    (Quad)   (Total)
    R1        3.23143  -0.07559   0.00000   0.00000   0.00000   3.23143
    R2        2.47554   0.02298   0.00000   0.00000   0.00000   2.47554
    A1        1.64104  -0.00226   0.00000  -0.01177  -0.01177   1.62927
         Item               Value     Threshold  Converged?
 Maximum Force            0.002259     0.000450     NO 
 RMS     Force            0.002259     0.000300     NO 
 Maximum Displacement     0.012393     0.001800     NO 
 RMS     Displacement     0.010733     0.001200     NO 
 Predicted change in Energy=-1.329675D-05
 GradGradGradGradGradGradGradGradGradGradGradGradGradGradGradGradGradGrad

                          Input orientation:                          
 ---------------------------------------------------------------------
 Center     Atomic      Atomic             Coordinates (Angstroms)
 Number     Number       Type             X           Y           Z
 ---------------------------------------------------------------------
      1         16           0       -1.772662    0.340376    0.000000
      2          1           0       -0.067339    0.466764    0.000000
      3          1           0       -1.945671    1.638901    0.000000
 ---------------------------------------------------------------------
                    Distance matrix (angstroms):
                    1          2          3
     1  S    0.000000
     2  H    1.710000   0.000000
     3  H    1.310000   2.214055   0.000000
 Stoichiometry    H2S
 Framework group  CS[SG(H2S)]
 Deg. of freedom     3
 Full point group                 CS      NOp   2
 Largest Abelian subgroup         CS      NOp   2
 Largest concise Abelian subgroup C1      NOp   1
[...]
 All quantities printed in internal units (Hartrees-Bohrs-Radians)
 Mixed Optimization -- En-DIIS/RFO-DIIS
 Swaping is turned off.
 Second derivative matrix not updated -- first step.
 The second derivative matrix:
                          R1        R2        A1
           R1           0.28976
           R2           0.00002   0.28981
           A1           0.00092   0.00251   0.11465
     Eigenvalues ---    0.114651000.000001000.00000
 En-DIIS/RFO-DIIS IScMMF=        0 using points:     1   99
 RFO step:  Lambda=-3.65519059D-04.
 DIIS coeffs:     -0.25862      1.25862
 Maximum step size (   0.050) exceeded in Quadratic search.
    -- Step size scaled by   0.023
 Iteration  1 RMS(Cart)=  0.02205523 RMS(Int)=  0.00002401
 Iteration  2 RMS(Cart)=  0.00004300 RMS(Int)=  0.00000000
 Iteration  3 RMS(Cart)=  0.00000000 RMS(Int)=  0.00000000
 Iteration  1 RMS(Cart)=  0.02202872 RMS(Int)=  0.00002175
 Iteration  2 RMS(Cart)=  0.00000800 RMS(Int)=  0.00001906
 Iteration  3 RMS(Cart)=  0.00000000 RMS(Int)=  0.00001906
 ClnCor:  largest displacement from symmetrization is 2.81D-15 for atom     3.
 Variable       Old X    -DE/DX   Delta X   Delta X   Delta X     New X
                                  (DIIS)     (GDIIS)  (Total)
    R1        4.36527  -0.07602  -0.05000   0.00000   0.00000   4.36527
    R2        4.36527  -0.07602   0.00000   0.00000   0.00000   4.36527
    A1        1.57919   0.00003   0.00005  -0.00005  -0.00003   1.57916
         Item               Value     Threshold  Converged?
 Maximum Force            0.000031     0.000450     YES
 RMS     Force            0.000031     0.000300     YES
 Maximum Displacement     0.000053     0.001800     YES
 RMS     Displacement     0.000050     0.001200     YES
 Predicted change in Energy=-1.108052D-09
 Optimization completed.
    -- Stationary point found.
                           ----------------------------
                           !   Optimized Parameters   !
                           ! (Angstroms and Degrees)  !
 --------------------------                            --------------------------
 ! Name  Definition              Value          Derivative Info.                !
 --------------------------------------------------------------------------------
 ! R1    R(1,2)                  2.31           -DE/DX =   -0.076               !
 ! R2    R(1,3)                  2.31           -DE/DX =   -0.076               !
 ! A1    A(2,1,3)               90.481          -DE/DX =    0.0                 !
 --------------------------------------------------------------------------------
 GradGradGradGradGradGradGradGradGradGradGradGradGradGradGradGradGradGrad

 Summary of Optimized Potential Surface Scan
                           1         2         3         4         5
     Eigenvalues --  -396.70304-396.70237-396.69493-396.68363-396.67012
           R1           1.31000   1.41000   1.51000   1.61000   1.71000
           R2           1.31000   1.31000   1.31000   1.31000   1.31000
           A1          96.45033  95.67226  94.83916  94.06031  93.35048
                           6         7         8         9        10
     Eigenvalues --  -396.65535-396.63993-396.62427-396.60867-396.59339
           R1           1.81000   1.91000   2.01000   2.11000   2.21000
           R2           1.31000   1.31000   1.31000   1.31000   1.31000
           A1          92.72058  92.16907  91.68856  91.27065  90.88119
                          11        12        13        14        15
     Eigenvalues --  -396.57859-396.57828-396.59306-396.60832-396.62389
           R1           2.31000   2.31000   2.21000   2.11000   2.01000
           R2           1.31000   1.41000   1.41000   1.41000   1.41000
           A1          90.57346  90.57337  90.74465  91.05300  91.41166
                          16        17        18        19        20
     Eigenvalues --  -396.63952-396.65491-396.66963-396.68310-396.69436
           R1           1.91000   1.81000   1.71000   1.61000   1.51000
           R2           1.41000   1.41000   1.41000   1.41000   1.41000
           A1          91.85871  92.34211  92.89751  93.52590  94.21594
                          21        22        23        24        25
     Eigenvalues --  -396.70176-396.70237-396.69493-396.69436-396.68701
           R1           1.41000   1.31000   1.31000   1.41000   1.51000
           R2           1.41000   1.41000   1.51000   1.51000   1.51000
           A1          94.93994  95.65664  94.84611  94.20180  93.57447
                          26        27        28        29        30
     Eigenvalues --  -396.67578-396.66235-396.64765-396.63230-396.61669
           R1           1.61000   1.71000   1.81000   1.91000   2.01000
           R2           1.51000   1.51000   1.51000   1.51000   1.51000
           A1          92.97610  92.43352  91.95739  91.54672  91.17098
                          31        32        33        34        35
     Eigenvalues --  -396.60115-396.58591-396.57115-396.56013-396.57488
           R1           2.11000   2.21000   2.31000   2.31000   2.21000
           R2           1.51000   1.51000   1.51000   1.61000   1.61000
           A1          90.87184  90.61693  90.40155  90.40161  90.39693
                          36        37        38        39        40
     Eigenvalues --  -396.59010-396.60561-396.62119-396.63652-396.65119
           R1           2.11000   2.01000   1.91000   1.81000   1.71000
           R2           1.61000   1.61000   1.61000   1.61000   1.61000
           A1          90.71722  90.95672  91.24048  91.57720  91.99953
                          41        42        43        44        45
     Eigenvalues --  -396.66459-396.67578-396.68310-396.68363-396.67012
           R1           1.61000   1.51000   1.41000   1.31000   1.31000
           R2           1.61000   1.61000   1.61000   1.61000   1.71000
           A1          92.46076  92.97343  93.51268  94.04273  93.35504
                          46        47        48        49        50
     Eigenvalues --  -396.66963-396.66235-396.65119-396.63781-396.62318
           R1           1.41000   1.51000   1.61000   1.71000   1.81000
           R2           1.71000   1.71000   1.71000   1.71000   1.71000
           A1          92.87642  92.42298  91.99440  91.61381  91.27194
                          51        52        53        54        55
     Eigenvalues --  -396.60788-396.59232-396.57683-396.56163-396.54690
           R1           1.91000   2.01000   2.11000   2.21000   2.31000
           R2           1.71000   1.71000   1.71000   1.71000   1.71000
           A1          91.00439  90.78402  90.60154  90.60159  90.32494
                          56        57        58        59        60
     Eigenvalues --  -396.53241-396.54712-396.56230-396.57777-396.59330
           R1           2.31000   2.21000   2.11000   2.01000   1.91000
           R2           1.81000   1.81000   1.81000   1.81000   1.81000
           A1          90.32496  90.32586  90.52562  90.52567  90.81747
                          61        62        63        64        65
     Eigenvalues --  -396.60858-396.62318-396.63652-396.64765-396.65491
           R1           1.81000   1.71000   1.61000   1.51000   1.41000
           R2           1.81000   1.81000   1.81000   1.81000   1.81000
           A1          91.01999  91.27195  91.51625  91.92962  92.32372
                          66        67        68        69        70
     Eigenvalues --  -396.65535-396.63993-396.63952-396.63230-396.62119
           R1           1.31000   1.31000   1.41000   1.51000   1.61000
           R2           1.81000   1.91000   1.91000   1.91000   1.91000
           A1          92.69594  92.17130  91.88867  91.52073  91.24058
                          71        72        73        74        75
     Eigenvalues --  -396.60788-396.59330-396.57806-396.56255-396.54710
           R1           1.71000   1.81000   1.91000   2.01000   2.11000
           R2           1.91000   1.91000   1.91000   1.91000   1.91000
           A1          91.00444  90.81756  90.67455  90.67459  90.62588
                          76        77        78        79        80
     Eigenvalues --  -396.53194-396.51725-396.50182-396.51650-396.53164
           R1           2.21000   2.31000   2.31000   2.21000   2.11000
           R2           1.91000   1.91000   2.01000   2.01000   2.01000
           A1          90.41578  90.41578  90.38827  90.39781  90.42323
                          81        82        83        84        85
     Eigenvalues --  -396.54707-396.56255-396.57777-396.59232-396.60561
           R1           2.01000   1.91000   1.81000   1.71000   1.61000
           R2           2.01000   2.01000   2.01000   2.01000   2.01000
           A1          90.42937  90.43273  90.65584  90.65591  90.95672
                          86        87        88        89        90
     Eigenvalues --  -396.61669-396.62389-396.62427-396.60867-396.60832
           R1           1.51000   1.41000   1.31000   1.31000   1.41000
           R2           2.01000   2.01000   2.01000   2.11000   2.11000
           A1          91.20037  91.44370  91.65538  91.27152  91.02888
                          91        92        93        94        95
     Eigenvalues --  -396.60115-396.59010-396.57683-396.56230-396.54710
           R1           1.51000   1.61000   1.71000   1.81000   1.91000
           R2           2.11000   2.11000   2.11000   2.11000   2.11000
           A1          90.87200  90.71733  90.71739  90.52564  90.52567
                          96        97        98        99       100
     Eigenvalues --  -396.53164-396.51623-396.50110-396.48644-396.47134
           R1           2.01000   2.11000   2.21000   2.31000   2.31000
           R2           2.11000   2.11000   2.11000   2.11000   2.21000
           A1          90.48161  90.46620  90.45505  90.44150  90.43535
                         101       102       103       104       105
     Eigenvalues --  -396.48599-396.50110-396.51650-396.53194-396.54712
           R1           2.21000   2.11000   2.01000   1.91000   1.81000
           R2           2.21000   2.21000   2.21000   2.21000   2.21000
           A1          90.45051  90.45445  90.44312  90.42730  90.41249
                         106       107       108       109       110
     Eigenvalues --  -396.56163-396.57488-396.58591-396.59306-396.59339
           R1           1.71000   1.61000   1.51000   1.41000   1.31000
           R2           2.21000   2.21000   2.21000   2.21000   2.21000
           A1          90.41139  90.51271  90.51560  90.75667  90.88117
                         111       112       113       114       115
     Eigenvalues --  -396.57859-396.57828-396.57115-396.56013-396.54690
           R1           1.31000   1.41000   1.51000   1.61000   1.71000
           R2           2.31000   2.31000   2.31000   2.31000   2.31000
           A1          90.57320  90.49501  90.48183  90.48680  90.48892
                         116       117       118       119       120
     Eigenvalues --  -396.53241-396.51725-396.50182-396.48644-396.47134
           R1           1.81000   1.91000   2.01000   2.11000   2.21000
           R2           2.31000   2.31000   2.31000   2.31000   2.31000
           A1          90.48930  90.48854  90.48705  90.48513  90.48304
                         121
     Eigenvalues --  -396.45670
           R1           2.31000
           R2           2.31000
           A1          90.48097
                          Input orientation:                          
 ---------------------------------------------------------------------
 Center     Atomic      Atomic             Coordinates (Angstroms)
 Number     Number       Type             X           Y           Z
 ---------------------------------------------------------------------
      1         16           0       -1.893458   -0.066111    0.000000
      2          1           0        0.387226    0.300739    0.000000
      3          1           0       -2.279440    2.211413    0.000000
 ---------------------------------------------------------------------
                    Distance matrix (angstroms):
                    1          2          3
     1  S    0.000000
     2  H    2.310000   0.000000
     3  H    2.310000   3.280516   0.000000
 Stoichiometry    H2S
 Framework group  CS[SG(H2S)]
 Deg. of freedom     3
 Full point group                 CS      NOp   2
 Largest Abelian subgroup         CS      NOp   2
 Largest concise Abelian subgroup C1      NOp   1
                         Standard orientation:                         
 ---------------------------------------------------------------------
 Center     Atomic      Atomic             Coordinates (Angstroms)
 Number     Number       Type             X           Y           Z
 ---------------------------------------------------------------------
      1         16           0        0.000000    0.180727    0.000000
      2          1           0        1.640258   -1.445819    0.000000
      3          1           0       -1.640258   -1.445819    0.000000
 ---------------------------------------------------------------------
 Rotational constants (GHZ):    100.7442847     93.1917891     48.4104888

 **********************************************************************

            Population analysis using the SCF density.

 **********************************************************************

 Orbital symmetries:
       Occupied  (A') (A') (A') (A') (A") (A') (A') (A') (A")
       Virtual   (A') (A') (A') (A") (A') (A') (A') (A')
 The electronic state is 1-A'.
 Alpha  occ. eigenvalues --  -91.39061  -8.97137  -6.64464  -6.64431  -6.64155
 Alpha  occ. eigenvalues --   -0.88403  -0.39863  -0.39762  -0.39081
 Alpha virt. eigenvalues --   -0.02362  -0.02317   0.61828   0.70226   0.75208
 Alpha virt. eigenvalues --    0.77611   1.15858   1.17548
          Condensed to atoms (all electrons):
              1          2          3
     1  S   15.799439   0.200082   0.200082
     2  H    0.200082   0.700769  -0.000652
     3  H    0.200082  -0.000652   0.700769
 Mulliken atomic charges:
              1
     1  S   -0.199603
     2  H    0.099801
     3  H    0.099801
 Sum of Mulliken atomic charges =   0.00000
 Mulliken charges with hydrogens summed into heavy atoms:
              1
     1  S    0.000000
 Sum of Mulliken charges with hydrogens summed into heavy atoms =   0.00000
 Electronic spatial extent (au):  <R**2>=             67.9999
 Charge=              0.0000 electrons
 Dipole moment (field-independent basis, Debye):
    X=              0.0000    Y=             -1.4359    Z=              0.0000  Tot=              1.4359
 Quadrupole moment (field-independent basis, Debye-Ang):
   XX=            -12.1633   YY=            -12.8670   ZZ=            -17.9951
   XY=              0.0000   XZ=              0.0000   YZ=              0.0000
 Traceless Quadrupole moment (field-independent basis, Debye-Ang):
   XX=              2.1785   YY=              1.4748   ZZ=             -3.6533
   XY=              0.0000   XZ=              0.0000   YZ=              0.0000
 Octapole moment (field-independent basis, Debye-Ang**2):
  XXX=              0.0000  YYY=             -1.2425  ZZZ=              0.0000  XYY=              0.0000
  XXY=             -5.1315  XXZ=              0.0000  XZZ=              0.0000  YZZ=              0.9731
  YYZ=              0.0000  XYZ=              0.0000
 Hexadecapole moment (field-independent basis, Debye-Ang**3):
 XXXX=            -43.1770 YYYY=            -41.6348 ZZZZ=            -24.2574 XXXY=              0.0000
 XXXZ=              0.0000 YYYX=              0.0000 YYYZ=              0.0000 ZZZX=              0.0000
 ZZZY=              0.0000 XXYY=             -6.3397 XXZZ=            -13.6582 YYZZ=            -12.6589
 XXYZ=              0.0000 YYXZ=              0.0000 ZZXY=              0.0000
 N-N= 7.491902491981D+00 E-N=-9.585864393948D+02  KE= 3.954163871931D+02
 Symmetry A'   KE= 3.570702322977D+02
 Symmetry A"   KE= 3.834615489538D+01
 1|1|UNPC-DESKTOP-K2VF0AK|Scan|RHF|3-21G|H2S1|MELIH|25-Oct-2024|0||# op
 t=modredundant hf/3-21g geom=connectivity||H2S Bond Length Scan||0,1|S
 ,-1.8934580978,-0.0661113748,0.|H,0.3872262288,0.3007387338,0.|H,-2.27
 94403554,2.2114130903,0.||Version=IA32W-G09RevA.02|State=1-A'|HF=-396.
 7030435,-396.7023749,-396.6949319,-396.6836278,-396.6701169,-396.65535
 26,-396.6399307,-396.624267,-396.6086739,-396.5933898,-396.578591,-396
 .5782823,-396.59306,-396.6083201,-396.6238858,-396.6395185,-396.654905
 8,-396.6696325,-396.6831032,-396.6943643,-396.7017602,-396.7023749,-39
 6.6949319,-396.6943643,-396.6870085,-396.6757839,-396.6623476,-396.647
 6533,-396.6322958,-396.61669,-396.601148,-396.5859087,-396.5711493,-39
 6.5601339,-396.5748758,-396.5900955,-396.6056148,-396.621195,-396.6365
 242,-396.6511882,-396.6645928,-396.6757839,-396.6831032,-396.6836279,-
 396.6701169,-396.6696325,-396.6623476,-396.6511882,-396.6378144,-396.6
 231801,-396.607879,-396.5923246,-396.5768282,-396.5616284,-396.5469041
 ,-396.5324132,-396.5471204,-396.5622998,-396.5777728,-396.5933018,-396
 .608575,-396.6231801,-396.6365241,-396.6476533,-396.6549059,-396.65535
 26,-396.6399307,-396.6395184,-396.6322958,-396.621195,-396.607879,-396
 .5933018,-396.5780555,-396.5625515,-396.5471004,-396.5319409,-396.5172
 502,-396.5018235,-396.516499,-396.5316409,-396.547071,-396.5625514,-39
 6.5777731,-396.5923242,-396.6056148,-396.61669,-396.6238858,-396.62426
 7,-396.6086739,-396.6083201,-396.601148,-396.5900955,-396.576828,-396.
 5622998,-396.5471007,-396.5316409,-396.5162291,-396.5011031,-396.48644
 09,-396.4713397,-396.4859907,-396.5011031,-396.516499,-396.5319409,-39
 6.5471205,-396.5616288,-396.574876,-396.5859085,-396.59306,-396.593389
 8,-396.578591,-396.5782825,-396.5711492,-396.5601337,-396.5469037,-396
 .5324128,-396.51725,-396.5018234,-396.4864409,-396.4713397,-396.456697
 8|RMSD=4.917e-009,9.424e-009,7.738e-009,9.661e-009,3.392e-009,2.410e-0
 09,2.024e-009,1.909e-009,1.838e-009,4.154e-009,1.071e-009,3.364e-009,1
 .298e-009,2.399e-009,2.263e-009,2.563e-009,3.772e-009,4.691e-009,3.733
 e-009,3.039e-009,9.282e-009,9.076e-009,7.667e-009,9.917e-009,8.483e-00
 9,3.241e-009,4.259e-009,9.189e-009,5.884e-009,2.316e-009,2.506e-009,9.
 994e-010,1.128e-009,6.777e-009,8.595e-010,3.824e-009,6.060e-009,4.057e
 -009,4.371e-009,3.313e-009,7.025e-009,3.034e-009,3.168e-009,6.349e-009
 ,3.369e-009,3.496e-009,3.633e-009,3.239e-009,5.156e-009,9.311e-009,3.7
 73e-009,1.689e-009,3.232e-009,1.436e-009,2.792e-009,6.566e-009,1.302e-
 009,2.277e-009,1.457e-009,3.429e-009,1.855e-009,2.914e-009,2.542e-009,
 7.473e-009,2.887e-009,1.574e-009,2.016e-009,1.388e-009,4.969e-009,2.48
 8e-009,3.341e-009,5.567e-009,2.072e-009,2.348e-009,2.254e-009,1.942e-0
 09,2.164e-009,5.167e-009,2.020e-009,2.074e-009,2.156e-009,2.254e-009,2
 .587e-009,2.446e-009,5.589e-009,2.395e-009,1.320e-009,4.793e-009,1.834
 e-009,1.035e-009,1.384e-009,2.749e-009,4.178e-009,2.698e-009,3.605e-00
 9,3.490e-009,3.427e-009,3.419e-009,3.474e-009,5.256e-009,3.162e-009,3.
 134e-009,3.177e-009,3.300e-009,3.569e-009,4.335e-009,7.838e-009,4.090e
 -009,1.091e-009,7.505e-009,1.683e-009,6.841e-009,4.415e-009,6.693e-009
 ,9.236e-009,6.700e-009,5.488e-009,5.158e-009,5.127e-009,5.246e-009,5.4
 67e-009|PG=CS [SG(H2S1)]||@


 ... THIS SEEMS PLAINLY ABSURD; BUT WHOEVER WISHES TO BECOME A 
 PHILOSOPHER MUST LEARN NOT TO BE FRIGHTENED BY ABSURDITIES.

                          -- BERTRAND RUSSELL
 Job cpu time:  0 days  0 hours  1 minutes 41.0 seconds.
 File lengths (MBytes):  RWF=      5 Int=      0 D2E=      0 Chk=      4 Scr=      1
 Normal termination of Gaussian 09 at Fri Oct 25 23:05:56 2024.
