 Entering Link 1 = C:\G09W\l1.exe PID=     20124.
  
 Copyright (c) 1988,1990,1992,1993,1995,1998,2003,2009, Gaussian, Inc.
                  All Rights Reserved.
  
 This is part of the Gaussian(R) 09 program.  It is based on
 the Gaussian(R) 03 system (copyright 2003, Gaussian, Inc.),
 the Gaussian(R) 98 system (copyright 1998, Gaussian, Inc.),
 the Gaussian(R) 94 system (copyright 1995, Gaussian, Inc.),
 the Gaussian 92(TM) system (copyright 1992, Gaussian, Inc.),
 the Gaussian 90(TM) system (copyright 1990, Gaussian, Inc.),
 the Gaussian 88(TM) system (copyright 1988, Gaussian, Inc.),
 the Gaussian 86(TM) system (copyright 1986, Carnegie Mellon
 University), and the Gaussian 82(TM) system (copyright 1983,
 Carnegie Mellon University). Gaussian is a federally registered
 trademark of Gaussian, Inc.
  
 This software contains proprietary and confidential information,
 including trade secrets, belonging to Gaussian, Inc.
  
 This software is provided under written license and may be
 used, copied, transmitted, or stored only in accord with that
 written license.
  
 The following legend is applicable only to US Government
 contracts under FAR:
  
                    RESTRICTED RIGHTS LEGEND
  
 Use, reproduction and disclosure by the US Government is
 subject to restrictions as set forth in subparagraphs (a)
 and (c) of the Commercial Computer Software - Restricted
 Rights clause in FAR 52.227-19.
  
 Gaussian, Inc.
 340 Quinnipiac St., Bldg. 40, Wallingford CT 06492
  
  
 ---------------------------------------------------------------
 Warning -- This program may not be used in any manner that
 competes with the business of Gaussian, Inc. or will provide
 assistance to any competitor of Gaussian, Inc.  The licensee
 of this program is prohibited from giving any competitor of
 Gaussian, Inc. access to this program.  By using this program,
 the user acknowledges that Gaussian, Inc. is engaged in the
 business of creating and licensing software in the field of
 computational chemistry and represents and warrants to the
 licensee that it is not a competitor of Gaussian, Inc. and that
 it will not use this program in any manner prohibited above.
 ---------------------------------------------------------------
  

 Cite this work as:
 Gaussian 09, Revision A.02,
 M. J. Frisch, G. W. Trucks, H. B. Schlegel, G. E. Scuseria, 
 M. A. Robb, J. R. Cheeseman, G. Scalmani, V. Barone, B. Mennucci, 
 G. A. Petersson, H. Nakatsuji, M. Caricato, X. Li, H. P. Hratchian, 
 A. F. Izmaylov, J. Bloino, G. Zheng, J. L. Sonnenberg, M. Hada, 
 M. Ehara, K. Toyota, R. Fukuda, J. Hasegawa, M. Ishida, T. Nakajima, 
 Y. Honda, O. Kitao, H. Nakai, T. Vreven, J. A. Montgomery, Jr., 
 J. E. Peralta, F. Ogliaro, M. Bearpark, J. J. Heyd, E. Brothers, 
 K. N. Kudin, V. N. Staroverov, R. Kobayashi, J. Normand, 
 K. Raghavachari, A. Rendell, J. C. Burant, S. S. Iyengar, J. Tomasi, 
 M. Cossi, N. Rega, J. M. Millam, M. Klene, J. E. Knox, J. B. Cross, 
 V. Bakken, C. Adamo, J. Jaramillo, R. Gomperts, R. E. Stratmann, 
 O. Yazyev, A. J. Austin, R. Cammi, C. Pomelli, J. W. Ochterski, 
 R. L. Martin, K. Morokuma, V. G. Zakrzewski, G. A. Voth, 
 P. Salvador, J. J. Dannenberg, S. Dapprich, A. D. Daniels, 
 O. Farkas, J. B. Foresman, J. V. Ortiz, J. Cioslowski, 
 and D. J. Fox, Gaussian, Inc., Wallingford CT, 2009.
 
 ******************************************
 Gaussian 09:  IA32W-G09RevA.02 11-Jun-2009
                25-Oct-2024 
 ******************************************
 %chk=C:\Users\melih\Desktop\Gaussian\H2S\NetAngleScan.chk
 ---------------------------------------------
 # opt=modredundant hf/3-21g geom=connectivity
 ---------------------------------------------
 1/18=120,19=15,38=1,57=2/1,3;
 2/9=110,12=2,17=6,18=5,40=1/2;
 3/5=5,11=9,16=1,25=1,30=1,71=1/1,2,3;
 4//1;
 5/5=2,38=5/2;
 6/7=2,8=2,9=2,10=2,28=1/1;
 7//1,2,3,16;
 1/18=20,19=15/3(2);
 2/9=110/2;
 99//99;
 2/9=110/2;
 3/5=5,11=9,16=1,25=1,30=1,71=1/1,2,3;
 4/5=5,16=3/1;
 5/5=2,38=5/2;
 7//1,2,3,16;
 1/18=20,19=15/3(-5);
 2/9=110/2;
 6/7=2,8=2,9=2,10=2,19=2,28=1/1;
 99/9=1/99;
 ----------
 H2S Energy
 ----------
 Symbolic Z-matrix:
 Charge =  0 Multiplicity = 1
 S                     0.        0.        0.08401 
 H                     0.        0.84205  -0.91951 
 H                     0.       -0.84205  -0.91951 
 
 The following ModRedundant input section has been read:
 A    2    1    3 S 400 0.1000                                                 

 GradGradGradGradGradGradGradGradGradGradGradGradGradGradGradGradGradGrad
 Berny optimization.
 Initialization pass.
                           ----------------------------
                           !    Initial Parameters    !
                           ! (Angstroms and Degrees)  !
 --------------------------                            --------------------------
 ! Name  Definition              Value          Derivative Info.                !
 --------------------------------------------------------------------------------
 ! R1    R(1,2)                  1.31           estimate D2E/DX2                !
 ! R2    R(1,3)                  1.31           estimate D2E/DX2                !
 ! A1    A(2,1,3)               80.0            Scan                            !
 --------------------------------------------------------------------------------
 Trust Radius=3.00D-01 FncErr=1.00D-07 GrdErr=1.00D-07
 Number of optimizations in scan= 401
 Number of steps in this run=  20 maximum allowed number of steps= 100.
 GradGradGradGradGradGradGradGradGradGradGradGradGradGradGradGradGradGrad

                          Input orientation:                          
 ---------------------------------------------------------------------
 Center     Atomic      Atomic             Coordinates (Angstroms)
 Number     Number       Type             X           Y           Z
 ---------------------------------------------------------------------
      1         16           0        0.000000    0.000000    0.084007
      2          1           0        0.000000    0.842052   -0.919512
      3          1           0        0.000000   -0.842052   -0.919512
 ---------------------------------------------------------------------
                    Distance matrix (angstroms):
                    1          2          3
     1  S    0.000000
     2  H    1.310000   0.000000
     3  H    1.310000   1.684104   0.000000
 Stoichiometry    H2S
 Framework group  C2V[C2(S),SGV(H2)]
 Deg. of freedom     2
 Full point group                 C2V     NOp   4
 Largest Abelian subgroup         C2V     NOp   4
 Largest concise Abelian subgroup C2      NOp   2
                         Standard orientation:                         
 ---------------------------------------------------------------------
 Center     Atomic      Atomic             Coordinates (Angstroms)
 Number     Number       Type             X           Y           Z
 ---------------------------------------------------------------------
      1         16           0        0.000000    0.000000    0.111502
      2          1           0        0.000000    0.842052   -0.892016
      3          1           0        0.000000   -0.842052   -0.892016
 ---------------------------------------------------------------------
 Rotational constants (GHZ):    353.6098949    264.6687950    151.3710666
 Standard basis: 3-21G (6D, 7F)
 There are     9 symmetry adapted basis functions of A1  symmetry.
 There are     0 symmetry adapted basis functions of A2  symmetry.
 There are     3 symmetry adapted basis functions of B1  symmetry.
 There are     5 symmetry adapted basis functions of B2  symmetry.
 Integral buffers will be    262144 words long.
 Raffenetti 1 integral format.
 Two-electron integral symmetry is turned on.
    17 basis functions,    33 primitive gaussians,    17 cartesian basis functions
     9 alpha electrons        9 beta electrons
       nuclear repulsion energy        13.2406840795 Hartrees.
 NAtoms=    3 NActive=    3 NUniq=    2 SFac= 1.69D+00 NAtFMM=   80 NAOKFM=F Big=F
 One-electron integrals computed using PRISM.
 NBasis=    17 RedAO= T  NBF=     9     0     3     5
 NBsUse=    17 1.00D-06 NBFU=     9     0     3     5
 Harris functional with IExCor=  205 diagonalized for initial guess.
 ExpMin= 1.42D-01 ExpMax= 1.21D+03 ExpMxC= 1.21D+03 IAcc=1 IRadAn=         1 AccDes= 0.00D+00
 HarFok:  IExCor=  205 AccDes= 0.00D+00 IRadAn=         1 IDoV= 1
 ScaDFX=  1.000000  1.000000  1.000000  1.000000
 FoFCou: FMM=F IPFlag=           0 FMFlag=      100000 FMFlg1=           0
         NFxFlg=           0 DoJE=T BraDBF=F KetDBF=T FulRan=T
         Omega=  0.000000  0.000000  1.000000  0.000000  0.000000 ICntrl=     500 IOpCl=  0
         NMat0=    1 NMatS0=    1 NMatT0=    0 NMatD0=    1 NMtDS0=    0 NMtDT0=    0
         I1Cent=           4 NGrid=           0.
 Petite list used in FoFCou.
 Initial guess orbital symmetries:
       Occupied  (A1) (A1) (A1) (B2) (B1) (A1) (B2) (A1) (B1)
       Virtual   (B2) (A1) (B2) (A1) (B1) (A1) (B2) (A1)
 The electronic state of the initial guess is 1-A1.
 Requested convergence on RMS density matrix=1.00D-08 within 128 cycles.
 Requested convergence on MAX density matrix=1.00D-06.
 Requested convergence on             energy=1.00D-06.
 No special actions if energy rises.
 Keep R1 ints in memory in canonical form, NReq=831531.
 SCF Done:  E(RHF) =  -396.693600696     A.U. after    9 cycles
             Convg  =    0.5237D-08             -V/T =  2.0002

 **********************************************************************

            Population analysis using the SCF density.

 **********************************************************************

 Orbital symmetries:
       Occupied  (A1) (A1) (B2) (A1) (B1) (A1) (B2) (A1) (B1)
       Virtual   (B2) (A1) (B2) (A1) (A1) (B1) (B2) (A1)
 The electronic state is 1-A1.
 Alpha  occ. eigenvalues --  -91.31816  -8.92262  -6.59688  -6.59640  -6.59190
 Alpha  occ. eigenvalues --   -1.01818  -0.57337  -0.51610  -0.39449
 Alpha virt. eigenvalues --    0.17430   0.22458   0.66405   0.67590   0.68944
 Alpha virt. eigenvalues --    0.70488   1.16670   1.20755
          Condensed to atoms (all electrons):
              1          2          3
     1  S   15.617591   0.250484   0.250484
     2  H    0.250484   0.735022  -0.044785
     3  H    0.250484  -0.044785   0.735022
 Mulliken atomic charges:
              1
     1  S   -0.118558
     2  H    0.059279
     3  H    0.059279
 Sum of Mulliken atomic charges =   0.00000
 Mulliken charges with hydrogens summed into heavy atoms:
              1
     1  S    0.000000
 Sum of Mulliken charges with hydrogens summed into heavy atoms =   0.00000
 Electronic spatial extent (au):  <R**2>=             44.0980
 Charge=              0.0000 electrons
 Dipole moment (field-independent basis, Debye):
    X=              0.0000    Y=              0.0000    Z=             -1.7247  Tot=              1.7247
 Quadrupole moment (field-independent basis, Debye-Ang):
   XX=            -16.6833   YY=            -13.3626   ZZ=            -13.8568
   XY=              0.0000   XZ=              0.0000   YZ=              0.0000
 Traceless Quadrupole moment (field-independent basis, Debye-Ang):
   XX=             -2.0491   YY=              1.2716   ZZ=              0.7774
   XY=              0.0000   XZ=              0.0000   YZ=              0.0000
 Octapole moment (field-independent basis, Debye-Ang**2):
  XXX=              0.0000  YYY=              0.0000  ZZZ=             -1.3145  XYY=              0.0000
  XXY=              0.0000  XXZ=             -0.6337  XZZ=              0.0000  YZZ=              0.0000
  YYZ=             -0.1330  XYZ=              0.0000
 Hexadecapole moment (field-independent basis, Debye-Ang**3):
 XXXX=            -22.4934 YYYY=            -22.6301 ZZZZ=            -25.3534 XXXY=              0.0000
 XXXZ=              0.0000 YYYX=              0.0000 YYYZ=              0.0000 ZZZX=              0.0000
 ZZZY=              0.0000 XXYY=             -7.5510 XXZZ=             -8.1534 YYZZ=             -7.7625
 XXYZ=              0.0000 YYXZ=              0.0000 ZZXY=              0.0000
 N-N= 1.324068407949D+01 E-N=-9.714337184725D+02  KE= 3.966213319176D+02
 Symmetry A1   KE= 3.210489218433D+02
 Symmetry A2   KE= 0.000000000000D+00
 Symmetry B1   KE= 3.819633466375D+01
 Symmetry B2   KE= 3.737607541055D+01
 Calling FoFJK, ICntrl=      2127 FMM=F ISym2X=1 I1Cent= 0 IOpClX= 0 NMat=1 NMatS=1 NMatT=0.
 ***** Axes restored to original set *****
 -------------------------------------------------------------------
 Center     Atomic                   Forces (Hartrees/Bohr)
 Number     Number              X              Y              Z
 -------------------------------------------------------------------
      1       16           0.000000000    0.000000000    0.008894256
      2        1           0.000000000    0.039081964   -0.004447128
      3        1           0.000000000   -0.039081964   -0.004447128
 -------------------------------------------------------------------
 Cartesian Forces:  Max     0.039081964 RMS     0.018777828

 GradGradGradGradGradGradGradGradGradGradGradGradGradGradGradGradGradGrad
 Berny optimization.
 Internal  Forces:  Max     0.067037568 RMS     0.045172781
 Search for a local minimum.
 Step number   1 out of a maximum of   20 on scan point     1 out of   401
 All quantities printed in internal units (Hartrees-Bohrs-Radians)
 Mixed Optimization -- RFO/linear search
 Second derivative matrix not updated -- first step.
 The second derivative matrix:
                          R1        R2        A1
           R1           0.28975
           R2           0.00000   0.28975
           A1           0.00000   0.00000   0.16000
     Eigenvalues ---    0.28975   0.289751000.00000
 RFO step:  Lambda=-5.51264587D-03 EMin= 2.89754778D-01
 Linear search not attempted -- first point.
 Iteration  1 RMS(Cart)=  0.06155216 RMS(Int)=  0.00000000
 Iteration  2 RMS(Cart)=  0.00000000 RMS(Int)=  0.00000000
 Iteration  1 RMS(Cart)=  0.00000000 RMS(Int)=  0.00000000
 ClnCor:  largest displacement from symmetrization is 9.42D-16 for atom     3.
 Variable       Old X    -DE/DX   Delta X   Delta X   Delta X     New X
                                 (Linear)    (Quad)   (Total)
    R1        2.47554   0.02853   0.00000   0.09662   0.09662   2.57216
    R2        2.47554   0.02853   0.00000   0.09662   0.09662   2.57216
    A1        1.39626   0.06704   0.00000   0.00000   0.00000   1.39626
         Item               Value     Threshold  Converged?
 Maximum Force            0.028528     0.000450     NO 
 RMS     Force            0.028528     0.000300     NO 
 Maximum Displacement     0.062105     0.001800     NO 
 RMS     Displacement     0.061552     0.001200     NO 
 Predicted change in Energy=-2.807784D-03
 GradGradGradGradGradGradGradGradGradGradGradGradGradGradGradGradGradGrad

                          Input orientation:                          
 ---------------------------------------------------------------------
 Center     Atomic      Atomic             Coordinates (Angstroms)
 Number     Number       Type             X           Y           Z
 ---------------------------------------------------------------------
      1         16           0        0.000000    0.000000    0.110118
      2          1           0        0.000000    0.874916   -0.932567
      3          1           0        0.000000   -0.874916   -0.932567
 ---------------------------------------------------------------------
                    Distance matrix (angstroms):
                    1          2          3
     1  S    0.000000
     2  H    1.361128   0.000000
     3  H    1.361128   1.749832   0.000000
 Stoichiometry    H2S
 Framework group  C2V[C2(S),SGV(H2)]
 Deg. of freedom     2
 Full point group                 C2V     NOp   4
 Largest Abelian subgroup         C2V     NOp   4
 Largest concise Abelian subgroup C2      NOp   2
                         Standard orientation:                         
 ---------------------------------------------------------------------
 Center     Atomic      Atomic             Coordinates (Angstroms)
 Number     Number       Type             X           Y           Z
 ---------------------------------------------------------------------
      1         16           0        0.000000    0.000000    0.115854
      2          1           0        0.000000    0.874916   -0.926831
      3          1           0        0.000000   -0.874916   -0.926831
 ---------------------------------------------------------------------
 Rotational constants (GHZ):    327.5435821    245.1587652    140.2127659
 Standard basis: 3-21G (6D, 7F)
 There are     9 symmetry adapted basis functions of A1  symmetry.
 There are     0 symmetry adapted basis functions of A2  symmetry.
 There are     3 symmetry adapted basis functions of B1  symmetry.
 There are     5 symmetry adapted basis functions of B2  symmetry.
 Integral buffers will be    262144 words long.
 Raffenetti 1 integral format.
 Two-electron integral symmetry is turned on.
    17 basis functions,    33 primitive gaussians,    17 cartesian basis functions
     9 alpha electrons        9 beta electrons
       nuclear repulsion energy        12.7433251985 Hartrees.
 NAtoms=    3 NActive=    3 NUniq=    2 SFac= 1.69D+00 NAtFMM=   80 NAOKFM=F Big=F
 One-electron integrals computed using PRISM.
 NBasis=    17 RedAO= T  NBF=     9     0     3     5
 NBsUse=    17 1.00D-06 NBFU=     9     0     3     5
 Initial guess read from the read-write file.
 B after Tr=     0.000000    0.000000    0.000000
         Rot=    1.000000    0.000000    0.000000    0.000000 Ang=   0.00 deg.
 Initial guess orbital symmetries:
       Occupied  (A1) (A1) (B2) (A1) (B1) (A1) (B2) (A1) (B1)
       Virtual   (B2) (A1) (B2) (A1) (A1) (B1) (B2) (A1)
 Harris functional with IExCor=  205 diagonalized for initial guess.
 ExpMin= 1.42D-01 ExpMax= 1.21D+03 ExpMxC= 1.21D+03 IAcc=1 IRadAn=         1 AccDes= 0.00D+00
 HarFok:  IExCor=  205 AccDes= 0.00D+00 IRadAn=         1 IDoV= 1
 ScaDFX=  1.000000  1.000000  1.000000  1.000000
 FoFCou: FMM=F IPFlag=           0 FMFlag=      100000 FMFlg1=           0
         NFxFlg=           0 DoJE=T BraDBF=F KetDBF=T FulRan=T
         Omega=  0.000000  0.000000  1.000000  0.000000  0.000000 ICntrl=     500 IOpCl=  0
         NMat0=    1 NMatS0=    1 NMatT0=    0 NMatD0=    1 NMtDS0=    0 NMtDT0=    0
         I1Cent=           4 NGrid=           0.
 Petite list used in FoFCou.
 Requested convergence on RMS density matrix=1.00D-08 within 128 cycles.
 Requested convergence on MAX density matrix=1.00D-06.
 Requested convergence on             energy=1.00D-06.
 No special actions if energy rises.
 Keep R1 ints in memory in canonical form, NReq=831531.
 SCF Done:  E(RHF) =  -396.696323144     A.U. after    9 cycles
             Convg  =    0.2520D-08             -V/T =  2.0006
 Calling FoFJK, ICntrl=      2127 FMM=F ISym2X=1 I1Cent= 0 IOpClX= 0 NMat=1 NMatS=1 NMatT=0.
 ***** Axes restored to original set *****
 -------------------------------------------------------------------
 Center     Atomic                   Forces (Hartrees/Bohr)
 Number     Number              X              Y              Z
 -------------------------------------------------------------------
      1       16           0.000000000    0.000000000   -0.029349050
      2        1           0.000000000    0.018900215    0.014674525
      3        1           0.000000000   -0.018900215    0.014674525
 -------------------------------------------------------------------
 Cartesian Forces:  Max     0.029349050 RMS     0.014931273

 GradGradGradGradGradGradGradGradGradGradGradGradGradGradGradGradGradGrad
 Berny optimization.
 Using GEDIIS/GDIIS optimizer.
 Internal  Forces:  Max     0.061502918 RMS     0.035516456
 Search for a local minimum.
 Step number   2 out of a maximum of   20 on scan point     1 out of   401
 All quantities printed in internal units (Hartrees-Bohrs-Radians)
 Mixed Optimization -- En-DIIS/RFO-DIIS
 Update second derivatives using D2CorX and points    1    2
 DE= -2.72D-03 DEPred=-2.81D-03 R= 9.70D-01
 SS=  1.41D+00  RLast= 1.37D-01 DXNew= 5.0454D-01 4.0991D-01
 Trust test= 9.70D-01 RLast= 1.37D-01 DXMaxT set to 4.10D-01
 The second derivative matrix:
                          R1        R2        A1
           R1           0.28781
           R2          -0.00194   0.28781
           A1           0.02864   0.02864   0.16574
 Use linear search instead of GDIIS.
     Eigenvalues ---    0.28587   0.289751000.00000
 RFO step:  Lambda= 0.00000000D+00 EMin= 2.85874899D-01
 Quartic linear search produced a step of  0.03813.
 Iteration  1 RMS(Cart)=  0.00234710 RMS(Int)=  0.00000000
 Iteration  2 RMS(Cart)=  0.00000000 RMS(Int)=  0.00000000
 Iteration  1 RMS(Cart)=  0.00000000 RMS(Int)=  0.00000000
 ClnCor:  largest displacement from symmetrization is 2.22D-15 for atom     3.
 Variable       Old X    -DE/DX   Delta X   Delta X   Delta X     New X
                                 (Linear)    (Quad)   (Total)
    R1        2.57216   0.00091   0.00368   0.00000   0.00368   2.57584
    R2        2.57216   0.00091   0.00368   0.00000   0.00368   2.57584
    A1        1.39626   0.06150   0.00000   0.00000   0.00000   1.39626
         Item               Value     Threshold  Converged?
 Maximum Force            0.000907     0.000450     NO 
 RMS     Force            0.000907     0.000300     NO 
 Maximum Displacement     0.002368     0.001800     NO 
 RMS     Displacement     0.002347     0.001200     NO 
 Predicted change in Energy=-2.806436D-06
 GradGradGradGradGradGradGradGradGradGradGradGradGradGradGradGradGradGrad

                          Input orientation:                          
 ---------------------------------------------------------------------
 Center     Atomic      Atomic             Coordinates (Angstroms)
 Number     Number       Type             X           Y           Z
 ---------------------------------------------------------------------
      1         16           0        0.000000    0.000000    0.111113
      2          1           0        0.000000    0.876169   -0.933065
      3          1           0        0.000000   -0.876169   -0.933065
 ---------------------------------------------------------------------
                    Distance matrix (angstroms):
                    1          2          3
     1  S    0.000000
     2  H    1.363078   0.000000
     3  H    1.363078   1.752339   0.000000
 Stoichiometry    H2S
 Framework group  C2V[C2(S),SGV(H2)]
 Deg. of freedom     2
 Full point group                 C2V     NOp   4
 Largest Abelian subgroup         C2V     NOp   4
 Largest concise Abelian subgroup C2      NOp   2
                         Standard orientation:                         
 ---------------------------------------------------------------------
 Center     Atomic      Atomic             Coordinates (Angstroms)
 Number     Number       Type             X           Y           Z
 ---------------------------------------------------------------------
      1         16           0        0.000000    0.000000    0.116020
      2          1           0        0.000000    0.876169   -0.928158
      3          1           0        0.000000   -0.876169   -0.928158
 ---------------------------------------------------------------------
 Rotational constants (GHZ):    326.6072834    244.4579673    139.8119611
 Standard basis: 3-21G (6D, 7F)
 There are     9 symmetry adapted basis functions of A1  symmetry.
 There are     0 symmetry adapted basis functions of A2  symmetry.
 There are     3 symmetry adapted basis functions of B1  symmetry.
 There are     5 symmetry adapted basis functions of B2  symmetry.
 Integral buffers will be    262144 words long.
 Raffenetti 1 integral format.
 Two-electron integral symmetry is turned on.
    17 basis functions,    33 primitive gaussians,    17 cartesian basis functions
     9 alpha electrons        9 beta electrons
       nuclear repulsion energy        12.7250984665 Hartrees.
 NAtoms=    3 NActive=    3 NUniq=    2 SFac= 1.69D+00 NAtFMM=   80 NAOKFM=F Big=F
 One-electron integrals computed using PRISM.
 NBasis=    17 RedAO= T  NBF=     9     0     3     5
 NBsUse=    17 1.00D-06 NBFU=     9     0     3     5
 Initial guess read from the read-write file.
 B after Tr=     0.000000    0.000000    0.000000
         Rot=    1.000000    0.000000    0.000000    0.000000 Ang=   0.00 deg.
 Initial guess orbital symmetries:
       Occupied  (A1) (A1) (B2) (A1) (B1) (A1) (B2) (A1) (B1)
       Virtual   (B2) (A1) (A1) (B2) (B1) (A1) (B2) (A1)
 Requested convergence on RMS density matrix=1.00D-08 within 128 cycles.
 Requested convergence on MAX density matrix=1.00D-06.
 Requested convergence on             energy=1.00D-06.
 No special actions if energy rises.
 Keep R1 ints in memory in canonical form, NReq=831531.
 SCF Done:  E(RHF) =  -396.696326470     A.U. after    7 cycles
             Convg  =    0.8523D-08             -V/T =  2.0006
 Calling FoFJK, ICntrl=      2127 FMM=F ISym2X=1 I1Cent= 0 IOpClX= 0 NMat=1 NMatS=1 NMatT=0.
 ***** Axes restored to original set *****
 -------------------------------------------------------------------
 Center     Atomic                   Forces (Hartrees/Bohr)
 Number     Number              X              Y              Z
 -------------------------------------------------------------------
      1       16           0.000000000    0.000000000   -0.030597198
      2        1           0.000000000    0.018227343    0.015298599
      3        1           0.000000000   -0.018227343    0.015298599
 -------------------------------------------------------------------
 Cartesian Forces:  Max     0.030597198 RMS     0.015161189

 GradGradGradGradGradGradGradGradGradGradGradGradGradGradGradGradGradGrad
 Berny optimization.
 Using GEDIIS/GDIIS optimizer.
 Internal  Forces:  Max     0.061296586 RMS     0.035389601
 Search for a local minimum.
 Step number   3 out of a maximum of   20 on scan point     1 out of   401
 All quantities printed in internal units (Hartrees-Bohrs-Radians)
 Mixed Optimization -- En-DIIS/RFO-DIIS
 Swaping is turned off.
 Update second derivatives using D2CorX and points    1    2    3
 DE= -3.33D-06 DEPred=-2.81D-06 R= 1.19D+00
 SS=  1.41D+00  RLast= 5.21D-03 DXNew= 6.8939D-01 1.5631D-02
 Trust test= 1.19D+00 RLast= 5.21D-03 DXMaxT set to 4.10D-01
 The second derivative matrix:
                          R1        R2        A1
           R1           0.26846
           R2          -0.02130   0.26846
           A1           0.02800   0.02800   0.16635
     Eigenvalues ---    0.24716   0.289751000.00000
 En-DIIS/RFO-DIIS IScMMF=        0 using points:     3    2
 RFO step:  Lambda=-1.18815395D-04.
 DIIS coeffs:      0.99849      0.00151
 Iteration  1 RMS(Cart)=  0.00000798 RMS(Int)=  0.00000000
 Iteration  2 RMS(Cart)=  0.00000000 RMS(Int)=  0.00000000
 Iteration  1 RMS(Cart)=  0.00000000 RMS(Int)=  0.00000000
 ClnCor:  largest displacement from symmetrization is 1.42D-15 for atom     3.
 Variable       Old X    -DE/DX   Delta X   Delta X   Delta X     New X
                                  (DIIS)     (GDIIS)  (Total)
    R1        2.57584   0.00000  -0.00001  -0.00001  -0.00001   2.57583
    R2        2.57584   0.00000  -0.00001  -0.00001  -0.00001   2.57583
    A1        1.39626   0.06130   0.00000   0.00000   0.00000   1.39626
         Item               Value     Threshold  Converged?
 Maximum Force            0.000003     0.000450     YES
 RMS     Force            0.000003     0.000300     YES
 Maximum Displacement     0.000008     0.001800     YES
 RMS     Displacement     0.000008     0.001200     YES
 Predicted change in Energy=-3.879555D-11
 Optimization completed.
    -- Stationary point found.
                           ----------------------------
                           !   Optimized Parameters   !
                           ! (Angstroms and Degrees)  !
 --------------------------                            --------------------------
 ! Name  Definition              Value          Derivative Info.                !
 --------------------------------------------------------------------------------
 ! R1    R(1,2)                  1.3631         -DE/DX =    0.0                 !
 ! R2    R(1,3)                  1.3631         -DE/DX =    0.0                 !
 ! A1    A(2,1,3)               80.0            -DE/DX =    0.0613              !
 --------------------------------------------------------------------------------
 Iteration  1 RMS(Cart)=  0.00156226 RMS(Int)=  0.00000080
 Iteration  2 RMS(Cart)=  0.00000062 RMS(Int)=  0.00000000
 Iteration  1 RMS(Cart)=  0.00000000 RMS(Int)=  0.00000000
 GradGradGradGradGradGradGradGradGradGradGradGradGradGradGradGradGradGrad

                          Input orientation:                          
 ---------------------------------------------------------------------
 Center     Atomic      Atomic             Coordinates (Angstroms)
 Number     Number       Type             X           Y           Z
 ---------------------------------------------------------------------
      1         16           0        0.000000    0.000000    0.110600
      2          1           0        0.000000    0.877076   -0.932808
      3          1           0        0.000000   -0.877076   -0.932808
 ---------------------------------------------------------------------
                    Distance matrix (angstroms):
                    1          2          3
     1  S    0.000000
     2  H    1.363071   0.000000
     3  H    1.363071   1.754152   0.000000
 Stoichiometry    H2S
 Framework group  C2V[C2(S),SGV(H2)]
 Deg. of freedom     2
 Full point group                 C2V     NOp   4
 Largest Abelian subgroup         C2V     NOp   4
 Largest concise Abelian subgroup C2      NOp   2
                         Standard orientation:                         
 ---------------------------------------------------------------------
 Center     Atomic      Atomic             Coordinates (Angstroms)
 Number     Number       Type             X           Y           Z
 ---------------------------------------------------------------------
      1         16           0        0.000000    0.000000    0.115934
      2          1           0        0.000000    0.877076   -0.927474
      3          1           0        0.000000   -0.877076   -0.927474
 ---------------------------------------------------------------------
 Rotational constants (GHZ):    325.9324160    244.8189386    139.8059374
 Standard basis: 3-21G (6D, 7F)
 There are     9 symmetry adapted basis functions of A1  symmetry.
 There are     0 symmetry adapted basis functions of A2  symmetry.
 There are     3 symmetry adapted basis functions of B1  symmetry.
 There are     5 symmetry adapted basis functions of B2  symmetry.
 Integral buffers will be    262144 words long.
 Raffenetti 1 integral format.
 Two-electron integral symmetry is turned on.
    17 basis functions,    33 primitive gaussians,    17 cartesian basis functions
     9 alpha electrons        9 beta electrons
       nuclear repulsion energy        12.7248467287 Hartrees.
 NAtoms=    3 NActive=    3 NUniq=    2 SFac= 1.69D+00 NAtFMM=   80 NAOKFM=F Big=F
 One-electron integrals computed using PRISM.
 NBasis=    17 RedAO= T  NBF=     9     0     3     5
 NBsUse=    17 1.00D-06 NBFU=     9     0     3     5
 Initial guess read from the read-write file.
 B after Tr=     0.000000    0.000000    0.000000
         Rot=    1.000000    0.000000    0.000000    0.000000 Ang=   0.00 deg.
 Initial guess orbital symmetries:
       Occupied  (A1) (A1) (B2) (A1) (B1) (A1) (B2) (A1) (B1)
       Virtual   (B2) (A1) (A1) (B2) (B1) (A1) (B2) (A1)
 Harris functional with IExCor=  205 diagonalized for initial guess.
 ExpMin= 1.42D-01 ExpMax= 1.21D+03 ExpMxC= 1.21D+03 IAcc=1 IRadAn=         1 AccDes= 0.00D+00
 HarFok:  IExCor=  205 AccDes= 0.00D+00 IRadAn=         1 IDoV= 1
 ScaDFX=  1.000000  1.000000  1.000000  1.000000
 FoFCou: FMM=F IPFlag=           0 FMFlag=      100000 FMFlg1=           0
         NFxFlg=           0 DoJE=T BraDBF=F KetDBF=T FulRan=T
         Omega=  0.000000  0.000000  1.000000  0.000000  0.000000 ICntrl=     500 IOpCl=  0
         NMat0=    1 NMatS0=    1 NMatT0=    0 NMatD0=    1 NMtDS0=    0 NMtDT0=    0
         I1Cent=           4 NGrid=           0.
 Petite list used in FoFCou.
 Requested convergence on RMS density matrix=1.00D-08 within 128 cycles.
 Requested convergence on MAX density matrix=1.00D-06.
 Requested convergence on             energy=1.00D-06.
 No special actions if energy rises.
 Keep R1 ints in memory in canonical form, NReq=831531.
 SCF Done:  E(RHF) =  -396.696433098     A.U. after    7 cycles
             Convg  =    0.1189D-08             -V/T =  2.0006
 Calling FoFJK, ICntrl=      2127 FMM=F ISym2X=1 I1Cent= 0 IOpClX= 0 NMat=1 NMatS=1 NMatT=0.
 ***** Axes restored to original set *****
 -------------------------------------------------------------------
 Center     Atomic                   Forces (Hartrees/Bohr)
 Number     Number              X              Y              Z
 -------------------------------------------------------------------
      1       16           0.000000000    0.000000000   -0.030495499
      2        1           0.000000000    0.018063584    0.015247750
      3        1           0.000000000   -0.018063584    0.015247750
 -------------------------------------------------------------------
 Cartesian Forces:  Max     0.030495499 RMS     0.015083285

 GradGradGradGradGradGradGradGradGradGradGradGradGradGradGradGradGradGrad
 Berny optimization.
 Internal  Forces:  Max     0.060889099 RMS     0.035154360
 Search for a local minimum.
 Step number   1 out of a maximum of   20 on scan point     2 out of   401
 All quantities printed in internal units (Hartrees-Bohrs-Radians)
 Mixed Optimization -- En-DIIS/RFO-DIIS
 Swaping is turned off.
 Second derivative matrix not updated -- first step.
 The second derivative matrix:
                          R1        R2        A1
           R1           0.26846
           R2          -0.02130   0.26846
           A1           0.02800   0.02800   0.16635
     Eigenvalues ---    0.24716   0.289751000.00000
 En-DIIS/RFO-DIIS IScMMF=        0 using points:     1   99
 RFO step:  Lambda=-1.17250458D-04.
 DIIS coeffs:      0.95405      0.04595
 Iteration  1 RMS(Cart)=  0.00016753 RMS(Int)=  0.00000000
 Iteration  2 RMS(Cart)=  0.00000000 RMS(Int)=  0.00000000
 Iteration  1 RMS(Cart)=  0.00007176 RMS(Int)=  0.00000000
 Iteration  2 RMS(Cart)=  0.00000000 RMS(Int)=  0.00000000
 ClnCor:  largest displacement from symmetrization is 1.29D-15 for atom     3.
 Variable       Old X    -DE/DX   Delta X   Delta X   Delta X     New X
                                  (DIIS)     (GDIIS)  (Total)
    R1        2.57583  -0.00005  -0.00017  -0.00002  -0.00019   2.57564
    R2        2.57583  -0.00005  -0.00017  -0.00002  -0.00019   2.57564
    A1        1.39801   0.06089  -0.00008   0.00000   0.00000   1.39801
         Item               Value     Threshold  Converged?
 Maximum Force            0.000049     0.000450     YES
 RMS     Force            0.000049     0.000300     YES
 Maximum Displacement     0.000121     0.001800     YES
 RMS     Displacement     0.000120     0.001200     YES
 Predicted change in Energy=-9.606121D-09
 Optimization completed.
    -- Stationary point found.
                           ----------------------------
                           !   Optimized Parameters   !
                           ! (Angstroms and Degrees)  !
 --------------------------                            --------------------------
 ! Name  Definition              Value          Derivative Info.                !
 --------------------------------------------------------------------------------
 ! R1    R(1,2)                  1.3631         -DE/DX =    0.0                 !
 ! R2    R(1,3)                  1.3631         -DE/DX =    0.0                 !
 ! A1    A(2,1,3)               80.1            -DE/DX =    0.0609              !
 --------------------------------------------------------------------------------
 Iteration  1 RMS(Cart)=  0.00156153 RMS(Int)=  0.00000080
 Iteration  2 RMS(Cart)=  0.00000062 RMS(Int)=  0.00000000
 Iteration  1 RMS(Cart)=  0.00000000 RMS(Int)=  0.00000000
 GradGradGradGradGradGradGradGradGradGradGradGradGradGradGradGradGradGrad

                          Input orientation:                          
 ---------------------------------------------------------------------
 Center     Atomic      Atomic             Coordinates (Angstroms)
 Number     Number       Type             X           Y           Z
 ---------------------------------------------------------------------
      1         16           0        0.000000    0.000000    0.110038
      2          1           0        0.000000    0.877922   -0.932527
      3          1           0        0.000000   -0.877922   -0.932527
 ---------------------------------------------------------------------
                    Distance matrix (angstroms):
                    1          2          3
     1  S    0.000000
     2  H    1.362971   0.000000
     3  H    1.362971   1.755844   0.000000
 Stoichiometry    H2S
 Framework group  C2V[C2(S),SGV(H2)]
 Deg. of freedom     2
 Full point group                 C2V     NOp   4
 Largest Abelian subgroup         C2V     NOp   4
 Largest concise Abelian subgroup C2      NOp   2
                         Standard orientation:                         
 ---------------------------------------------------------------------
 Center     Atomic      Atomic             Coordinates (Angstroms)
 Number     Number       Type             X           Y           Z
 ---------------------------------------------------------------------
      1         16           0        0.000000    0.000000    0.115841
      2          1           0        0.000000    0.877922   -0.926725
      3          1           0        0.000000   -0.877922   -0.926725
 ---------------------------------------------------------------------
 Rotational constants (GHZ):    325.3045300    245.2145418    139.8189915
 Standard basis: 3-21G (6D, 7F)
 There are     9 symmetry adapted basis functions of A1  symmetry.
 There are     0 symmetry adapted basis functions of A2  symmetry.
 There are     3 symmetry adapted basis functions of B1  symmetry.
 There are     5 symmetry adapted basis functions of B2  symmetry.
 Integral buffers will be    262144 words long.
 Raffenetti 1 integral format.
 Two-electron integral symmetry is turned on.
    17 basis functions,    33 primitive gaussians,    17 cartesian basis functions
     9 alpha electrons        9 beta electrons
       nuclear repulsion energy        12.7254641454 Hartrees.
 NAtoms=    3 NActive=    3 NUniq=    2 SFac= 1.69D+00 NAtFMM=   80 NAOKFM=F Big=F
 One-electron integrals computed using PRISM.
 NBasis=    17 RedAO= T  NBF=     9     0     3     5
 NBsUse=    17 1.00D-06 NBFU=     9     0     3     5
 Initial guess read from the read-write file.
 B after Tr=     0.000000    0.000000    0.000000
         Rot=    1.000000    0.000000    0.000000    0.000000 Ang=   0.00 deg.
 Initial guess orbital symmetries:
       Occupied  (A1) (A1) (B2) (A1) (B1) (A1) (B2) (A1) (B1)
       Virtual   (B2) (A1) (A1) (B2) (B1) (A1) (B2) (A1)
 Harris functional with IExCor=  205 diagonalized for initial guess.
 ExpMin= 1.42D-01 ExpMax= 1.21D+03 ExpMxC= 1.21D+03 IAcc=1 IRadAn=         1 AccDes= 0.00D+00
 HarFok:  IExCor=  205 AccDes= 0.00D+00 IRadAn=         1 IDoV= 1
 ScaDFX=  1.000000  1.000000  1.000000  1.000000
 FoFCou: FMM=F IPFlag=           0 FMFlag=      100000 FMFlg1=           0
         NFxFlg=           0 DoJE=T BraDBF=F KetDBF=T FulRan=T
         Omega=  0.000000  0.000000  1.000000  0.000000  0.000000 ICntrl=     500 IOpCl=  0
         NMat0=    1 NMatS0=    1 NMatT0=    0 NMatD0=    1 NMtDS0=    0 NMtDT0=    0
         I1Cent=           4 NGrid=           0.
 Petite list used in FoFCou.
 Requested convergence on RMS density matrix=1.00D-08 within 128 cycles.
 Requested convergence on MAX density matrix=1.00D-06.
 Requested convergence on             energy=1.00D-06.
 No special actions if energy rises.
 Keep R1 ints in memory in canonical form, NReq=831531.
 SCF Done:  E(RHF) =  -396.696539041     A.U. after    7 cycles
             Convg  =    0.1531D-08             -V/T =  2.0006
 Calling FoFJK, ICntrl=      2127 FMM=F ISym2X=1 I1Cent= 0 IOpClX= 0 NMat=1 NMatS=1 NMatT=0.
 ***** Axes restored to original set *****
 -------------------------------------------------------------------
 Center     Atomic                   Forces (Hartrees/Bohr)
 Number     Number              X              Y              Z
 -------------------------------------------------------------------
      1       16           0.000000000    0.000000000   -0.030333884
      2        1           0.000000000    0.017931981    0.015166942
      3        1           0.000000000   -0.017931981    0.015166942
 -------------------------------------------------------------------
 Cartesian Forces:  Max     0.030333884 RMS     0.014993809

 GradGradGradGradGradGradGradGradGradGradGradGradGradGradGradGradGradGrad
 Berny optimization.
 Internal  Forces:  Max     0.060491394 RMS     0.034924748
 Search for a local minimum.
 Step number   1 out of a maximum of   20 on scan point     3 out of   401
 All quantities printed in internal units (Hartrees-Bohrs-Radians)
 Mixed Optimization -- En-DIIS/RFO-DIIS
 Swaping is turned off.
 Second derivative matrix not updated -- first step.
 The second derivative matrix:
                          R1        R2        A1
           R1           0.26846
           R2          -0.02130   0.26846
           A1           0.02800   0.02800   0.16635
     Eigenvalues ---    0.24716   0.289751000.00000
 En-DIIS/RFO-DIIS IScMMF=        0 using points:     1   99
 RFO step:  Lambda=-1.15724848D-04.
 DIIS coeffs:      0.95493      0.04507
 Iteration  1 RMS(Cart)=  0.00022603 RMS(Int)=  0.00000001
 Iteration  2 RMS(Cart)=  0.00000001 RMS(Int)=  0.00000000
 Iteration  1 RMS(Cart)=  0.00014071 RMS(Int)=  0.00000001
 Iteration  2 RMS(Cart)=  0.00000000 RMS(Int)=  0.00000001
 ClnCor:  largest displacement from symmetrization is 2.29D-12 for atom     3.
 Variable       Old X    -DE/DX   Delta X   Delta X   Delta X     New X
                                  (DIIS)     (GDIIS)  (Total)
    R1        2.57564  -0.00005  -0.00016  -0.00003  -0.00019   2.57545
    R2        2.57564  -0.00005  -0.00016  -0.00003  -0.00019   2.57545
    A1        1.39975   0.06049  -0.00016   0.00000   0.00000   1.39975
         Item               Value     Threshold  Converged?
 Maximum Force            0.000051     0.000450     YES
 RMS     Force            0.000051     0.000300     YES
 Maximum Displacement     0.000122     0.001800     YES
 RMS     Displacement     0.000120     0.001200     YES
 Predicted change in Energy=-1.048886D-08
 Optimization completed.
    -- Stationary point found.
                           ----------------------------
                           !   Optimized Parameters   !
                           ! (Angstroms and Degrees)  !
 --------------------------                            --------------------------
 ! Name  Definition              Value          Derivative Info.                !
 --------------------------------------------------------------------------------
 ! R1    R(1,2)                  1.363          -DE/DX =   -0.0001              !
 ! R2    R(1,3)                  1.363          -DE/DX =   -0.0001              !
 ! A1    A(2,1,3)               80.2            -DE/DX =    0.0605              !
 --------------------------------------------------------------------------------
 Iteration  1 RMS(Cart)=  0.00156079 RMS(Int)=  0.00000080
 Iteration  2 RMS(Cart)=  0.00000063 RMS(Int)=  0.00000000
 Iteration  1 RMS(Cart)=  0.00000000 RMS(Int)=  0.00000000
 GradGradGradGradGradGradGradGradGradGradGradGradGradGradGradGradGradGrad

                          Input orientation:                          
 ---------------------------------------------------------------------
 Center     Atomic      Atomic             Coordinates (Angstroms)
 Number     Number       Type             X           Y           Z
 ---------------------------------------------------------------------
      1         16           0        0.000000    0.000000    0.109477
      2          1           0        0.000000    0.878767   -0.932247
      3          1           0        0.000000   -0.878767   -0.932247
 ---------------------------------------------------------------------
                    Distance matrix (angstroms):
                    1          2          3
     1  S    0.000000
     2  H    1.362871   0.000000
     3  H    1.362871   1.757534   0.000000
 Stoichiometry    H2S
 Framework group  C2V[C2(S),SGV(H2)]
 Deg. of freedom     2
 Full point group                 C2V     NOp   4
 Largest Abelian subgroup         C2V     NOp   4
 Largest concise Abelian subgroup C2      NOp   2
                         Standard orientation:                         
 ---------------------------------------------------------------------
 Center     Atomic      Atomic             Coordinates (Angstroms)
 Number     Number       Type             X           Y           Z
 ---------------------------------------------------------------------
      1         16           0        0.000000    0.000000    0.115747
      2          1           0        0.000000    0.878767   -0.925976
      3          1           0        0.000000   -0.878767   -0.925976
 ---------------------------------------------------------------------
 Rotational constants (GHZ):    324.6792188    245.6115547    139.8321197
 Standard basis: 3-21G (6D, 7F)
 There are     9 symmetry adapted basis functions of A1  symmetry.
 There are     0 symmetry adapted basis functions of A2  symmetry.
 There are     3 symmetry adapted basis functions of B1  symmetry.
 There are     5 symmetry adapted basis functions of B2  symmetry.
 Integral buffers will be    262144 words long.
 Raffenetti 1 integral format.
 Two-electron integral symmetry is turned on.
    17 basis functions,    33 primitive gaussians,    17 cartesian basis functions
     9 alpha electrons        9 beta electrons
       nuclear repulsion energy        12.7260858565 Hartrees.
 NAtoms=    3 NActive=    3 NUniq=    2 SFac= 1.69D+00 NAtFMM=   80 NAOKFM=F Big=F
 One-electron integrals computed using PRISM.
 NBasis=    17 RedAO= T  NBF=     9     0     3     5
 NBsUse=    17 1.00D-06 NBFU=     9     0     3     5
 Initial guess read from the read-write file.
 B after Tr=     0.000000    0.000000    0.000000
         Rot=    1.000000    0.000000    0.000000    0.000000 Ang=   0.00 deg.
 Initial guess orbital symmetries:
       Occupied  (A1) (A1) (B2) (A1) (B1) (A1) (B2) (A1) (B1)
       Virtual   (B2) (A1) (A1) (B2) (B1) (A1) (B2) (A1)
 Harris functional with IExCor=  205 diagonalized for initial guess.
 ExpMin= 1.42D-01 ExpMax= 1.21D+03 ExpMxC= 1.21D+03 IAcc=1 IRadAn=         1 AccDes= 0.00D+00
 HarFok:  IExCor=  205 AccDes= 0.00D+00 IRadAn=         1 IDoV= 1
 ScaDFX=  1.000000  1.000000  1.000000  1.000000
 FoFCou: FMM=F IPFlag=           0 FMFlag=      100000 FMFlg1=           0
         NFxFlg=           0 DoJE=T BraDBF=F KetDBF=T FulRan=T
         Omega=  0.000000  0.000000  1.000000  0.000000  0.000000 ICntrl=     500 IOpCl=  0
         NMat0=    1 NMatS0=    1 NMatT0=    0 NMatD0=    1 NMtDS0=    0 NMtDT0=    0
         I1Cent=           4 NGrid=           0.
 Petite list used in FoFCou.
 Requested convergence on RMS density matrix=1.00D-08 within 128 cycles.
 Requested convergence on MAX density matrix=1.00D-06.
 Requested convergence on             energy=1.00D-06.
 No special actions if energy rises.
 Keep R1 ints in memory in canonical form, NReq=831531.
 SCF Done:  E(RHF) =  -396.696644291     A.U. after    7 cycles
             Convg  =    0.1531D-08             -V/T =  2.0006
 Calling FoFJK, ICntrl=      2127 FMM=F ISym2X=1 I1Cent= 0 IOpClX= 0 NMat=1 NMatS=1 NMatT=0.
 ***** Axes restored to original set *****
 -------------------------------------------------------------------
 Center     Atomic                   Forces (Hartrees/Bohr)
 Number     Number              X              Y              Z
 -------------------------------------------------------------------
      1       16           0.000000000    0.000000000   -0.030171319
      2        1           0.000000000    0.017800724    0.015085660
      3        1           0.000000000   -0.017800724    0.015085660
 -------------------------------------------------------------------
 Cartesian Forces:  Max     0.030171319 RMS     0.014904117

 GradGradGradGradGradGradGradGradGradGradGradGradGradGradGradGradGradGrad
 Berny optimization.
 Internal  Forces:  Max     0.060093680 RMS     0.034695129
 Search for a local minimum.
 Step number   1 out of a maximum of   20 on scan point     4 out of   401
 All quantities printed in internal units (Hartrees-Bohrs-Radians)
 Mixed Optimization -- En-DIIS/RFO-DIIS
 Swaping is turned off.
 Second derivative matrix not updated -- first step.
 The second derivative matrix:
                          R1        R2        A1
           R1           0.26846
           R2          -0.02130   0.26846
           A1           0.02800   0.02800   0.16635
     Eigenvalues ---    0.24716   0.289751000.00000
 En-DIIS/RFO-DIIS IScMMF=        0 using points:     1   99
 RFO step:  Lambda=-1.14209113D-04.
 DIIS coeffs:      0.95607      0.04393
 Iteration  1 RMS(Cart)=  0.00028516 RMS(Int)=  0.00000002
 Iteration  2 RMS(Cart)=  0.00000001 RMS(Int)=  0.00000000
 Iteration  1 RMS(Cart)=  0.00020563 RMS(Int)=  0.00000001
 Iteration  2 RMS(Cart)=  0.00000000 RMS(Int)=  0.00000001
 ClnCor:  largest displacement from symmetrization is 1.84D-11 for atom     3.
 Variable       Old X    -DE/DX   Delta X   Delta X   Delta X     New X
                                  (DIIS)     (GDIIS)  (Total)
    R1        2.57545  -0.00005  -0.00014  -0.00004  -0.00019   2.57526
    R2        2.57545  -0.00005  -0.00014  -0.00004  -0.00019   2.57526
    A1        1.40150   0.06009  -0.00023   0.00000   0.00000   1.40150
         Item               Value     Threshold  Converged?
 Maximum Force            0.000053     0.000450     YES
 RMS     Force            0.000053     0.000300     YES
 Maximum Displacement     0.000122     0.001800     YES
 RMS     Displacement     0.000120     0.001200     YES
 Predicted change in Energy=-1.124681D-08
 Optimization completed.
    -- Stationary point found.
                           ----------------------------
                           !   Optimized Parameters   !
                           ! (Angstroms and Degrees)  !
 --------------------------                            --------------------------
 ! Name  Definition              Value          Derivative Info.                !
 --------------------------------------------------------------------------------
 ! R1    R(1,2)                  1.3629         -DE/DX =   -0.0001              !
 ! R2    R(1,3)                  1.3629         -DE/DX =   -0.0001              !
 ! A1    A(2,1,3)               80.3            -DE/DX =    0.0601              !
 --------------------------------------------------------------------------------
 Iteration  1 RMS(Cart)=  0.00156006 RMS(Int)=  0.00000080
 Iteration  2 RMS(Cart)=  0.00000063 RMS(Int)=  0.00000000
 Iteration  1 RMS(Cart)=  0.00000000 RMS(Int)=  0.00000000
 GradGradGradGradGradGradGradGradGradGradGradGradGradGradGradGradGradGrad

                          Input orientation:                          
 ---------------------------------------------------------------------
 Center     Atomic      Atomic             Coordinates (Angstroms)
 Number     Number       Type             X           Y           Z
 ---------------------------------------------------------------------
      1         16           0        0.000000    0.000000    0.108914
      2          1           0        0.000000    0.879611   -0.931965
      3          1           0        0.000000   -0.879611   -0.931965
 ---------------------------------------------------------------------
                    Distance matrix (angstroms):
                    1          2          3
     1  S    0.000000
     2  H    1.362771   0.000000
     3  H    1.362771   1.759223   0.000000
 Stoichiometry    H2S
 Framework group  C2V[C2(S),SGV(H2)]
 Deg. of freedom     2
 Full point group                 C2V     NOp   4
 Largest Abelian subgroup         C2V     NOp   4
 Largest concise Abelian subgroup C2      NOp   2
                         Standard orientation:                         
 ---------------------------------------------------------------------
 Center     Atomic      Atomic             Coordinates (Angstroms)
 Number     Number       Type             X           Y           Z
 ---------------------------------------------------------------------
      1         16           0        0.000000    0.000000    0.115653
      2          1           0        0.000000    0.879611   -0.925226
      3          1           0        0.000000   -0.879611   -0.925226
 ---------------------------------------------------------------------
 Rotational constants (GHZ):    324.0562770    246.0098366    139.8452387
 Standard basis: 3-21G (6D, 7F)
 There are     9 symmetry adapted basis functions of A1  symmetry.
 There are     0 symmetry adapted basis functions of A2  symmetry.
 There are     3 symmetry adapted basis functions of B1  symmetry.
 There are     5 symmetry adapted basis functions of B2  symmetry.
 Integral buffers will be    262144 words long.
 Raffenetti 1 integral format.
 Two-electron integral symmetry is turned on.
    17 basis functions,    33 primitive gaussians,    17 cartesian basis functions
     9 alpha electrons        9 beta electrons
       nuclear repulsion energy        12.7267080754 Hartrees.
 NAtoms=    3 NActive=    3 NUniq=    2 SFac= 1.69D+00 NAtFMM=   80 NAOKFM=F Big=F
 One-electron integrals computed using PRISM.
 NBasis=    17 RedAO= T  NBF=     9     0     3     5
 NBsUse=    17 1.00D-06 NBFU=     9     0     3     5
 Initial guess read from the read-write file.
 B after Tr=     0.000000    0.000000    0.000000
         Rot=    1.000000    0.000000    0.000000    0.000000 Ang=   0.00 deg.
 Initial guess orbital symmetries:
       Occupied  (A1) (A1) (B2) (A1) (B1) (A1) (B2) (A1) (B1)
       Virtual   (B2) (A1) (A1) (B2) (B1) (A1) (B2) (A1)
 Harris functional with IExCor=  205 diagonalized for initial guess.
 ExpMin= 1.42D-01 ExpMax= 1.21D+03 ExpMxC= 1.21D+03 IAcc=1 IRadAn=         1 AccDes= 0.00D+00
 HarFok:  IExCor=  205 AccDes= 0.00D+00 IRadAn=         1 IDoV= 1
 ScaDFX=  1.000000  1.000000  1.000000  1.000000
 FoFCou: FMM=F IPFlag=           0 FMFlag=      100000 FMFlg1=           0
         NFxFlg=           0 DoJE=T BraDBF=F KetDBF=T FulRan=T
         Omega=  0.000000  0.000000  1.000000  0.000000  0.000000 ICntrl=     500 IOpCl=  0
         NMat0=    1 NMatS0=    1 NMatT0=    0 NMatD0=    1 NMtDS0=    0 NMtDT0=    0
         I1Cent=           4 NGrid=           0.
 Petite list used in FoFCou.
 Requested convergence on RMS density matrix=1.00D-08 within 128 cycles.
 Requested convergence on MAX density matrix=1.00D-06.
 Requested convergence on             energy=1.00D-06.
 No special actions if energy rises.
 Keep R1 ints in memory in canonical form, NReq=831531.
 SCF Done:  E(RHF) =  -396.696748848     A.U. after    7 cycles
             Convg  =    0.1529D-08             -V/T =  2.0006
 Calling FoFJK, ICntrl=      2127 FMM=F ISym2X=1 I1Cent= 0 IOpClX= 0 NMat=1 NMatS=1 NMatT=0.
 ***** Axes restored to original set *****
 -------------------------------------------------------------------
 Center     Atomic                   Forces (Hartrees/Bohr)
 Number     Number              X              Y              Z
 -------------------------------------------------------------------
      1       16           0.000000000    0.000000000   -0.030008065
      2        1           0.000000000    0.017669676    0.015004033
      3        1           0.000000000   -0.017669676    0.015004033
 -------------------------------------------------------------------
 Cartesian Forces:  Max     0.030008065 RMS     0.014814261

 GradGradGradGradGradGradGradGradGradGradGradGradGradGradGradGradGradGrad
 Berny optimization.
 Internal  Forces:  Max     0.059695919 RMS     0.034465484
 Search for a local minimum.
 Step number   1 out of a maximum of   20 on scan point     5 out of   401
 All quantities printed in internal units (Hartrees-Bohrs-Radians)
 Mixed Optimization -- En-DIIS/RFO-DIIS
 Swaping is turned off.
 Second derivative matrix not updated -- first step.
 The second derivative matrix:
                          R1        R2        A1
           R1           0.26846
           R2          -0.02130   0.26846
           A1           0.02800   0.02800   0.16635
     Eigenvalues ---    0.24716   0.289751000.00000
 En-DIIS/RFO-DIIS IScMMF=        0 using points:     1   99
 RFO step:  Lambda=-1.12703180D-04.
 DIIS coeffs:      0.95728      0.04272
 Iteration  1 RMS(Cart)=  0.00034250 RMS(Int)=  0.00000003
 Iteration  2 RMS(Cart)=  0.00000002 RMS(Int)=  0.00000000
 Iteration  1 RMS(Cart)=  0.00026648 RMS(Int)=  0.00000002
 Iteration  2 RMS(Cart)=  0.00000000 RMS(Int)=  0.00000002
 ClnCor:  largest displacement from symmetrization is 2.97D-11 for atom     3.
 Variable       Old X    -DE/DX   Delta X   Delta X   Delta X     New X
                                  (DIIS)     (GDIIS)  (Total)
    R1        2.57526  -0.00005  -0.00013  -0.00006  -0.00019   2.57508
    R2        2.57526  -0.00005  -0.00013  -0.00006  -0.00019   2.57508
    A1        1.40324   0.05970  -0.00030   0.00000   0.00000   1.40324
         Item               Value     Threshold  Converged?
 Maximum Force            0.000055     0.000450     YES
 RMS     Force            0.000055     0.000300     YES
 Maximum Displacement     0.000122     0.001800     YES
 RMS     Displacement     0.000120     0.001200     YES
 Predicted change in Energy=-1.195446D-08
 Optimization completed.
    -- Stationary point found.
                           ----------------------------
                           !   Optimized Parameters   !
                           ! (Angstroms and Degrees)  !
 --------------------------                            --------------------------
 ! Name  Definition              Value          Derivative Info.                !
 --------------------------------------------------------------------------------
 ! R1    R(1,2)                  1.3628         -DE/DX =   -0.0001              !
 ! R2    R(1,3)                  1.3628         -DE/DX =   -0.0001              !
 ! A1    A(2,1,3)               80.4            -DE/DX =    0.0597              !
 --------------------------------------------------------------------------------
 Iteration  1 RMS(Cart)=  0.00155933 RMS(Int)=  0.00000080
 Iteration  2 RMS(Cart)=  0.00000063 RMS(Int)=  0.00000000
 Iteration  1 RMS(Cart)=  0.00000000 RMS(Int)=  0.00000000
 GradGradGradGradGradGradGradGradGradGradGradGradGradGradGradGradGradGrad

                          Input orientation:                          
 ---------------------------------------------------------------------
 Center     Atomic      Atomic             Coordinates (Angstroms)
 Number     Number       Type             X           Y           Z
 ---------------------------------------------------------------------
      1         16           0        0.000000    0.000000    0.108351
      2          1           0        0.000000    0.880455   -0.931684
      3          1           0        0.000000   -0.880455   -0.931684
 ---------------------------------------------------------------------
                    Distance matrix (angstroms):
                    1          2          3
     1  S    0.000000
     2  H    1.362672   0.000000
     3  H    1.362672   1.760910   0.000000
 Stoichiometry    H2S
 Framework group  C2V[C2(S),SGV(H2)]
 Deg. of freedom     2
 Full point group                 C2V     NOp   4
 Largest Abelian subgroup         C2V     NOp   4
 Largest concise Abelian subgroup C2      NOp   2
                         Standard orientation:                         
 ---------------------------------------------------------------------
 Center     Atomic      Atomic             Coordinates (Angstroms)
 Number     Number       Type             X           Y           Z
 ---------------------------------------------------------------------
      1         16           0        0.000000    0.000000    0.115559
      2          1           0        0.000000    0.880455   -0.924476
      3          1           0        0.000000   -0.880455   -0.924476
 ---------------------------------------------------------------------
 Rotational constants (GHZ):    323.4356932    246.4093928    139.8583488
 Standard basis: 3-21G (6D, 7F)
 There are     9 symmetry adapted basis functions of A1  symmetry.
 There are     0 symmetry adapted basis functions of A2  symmetry.
 There are     3 symmetry adapted basis functions of B1  symmetry.
 There are     5 symmetry adapted basis functions of B2  symmetry.
 Integral buffers will be    262144 words long.
 Raffenetti 1 integral format.
 Two-electron integral symmetry is turned on.
    17 basis functions,    33 primitive gaussians,    17 cartesian basis functions
     9 alpha electrons        9 beta electrons
       nuclear repulsion energy        12.7273308031 Hartrees.
 NAtoms=    3 NActive=    3 NUniq=    2 SFac= 1.69D+00 NAtFMM=   80 NAOKFM=F Big=F
 One-electron integrals computed using PRISM.
 NBasis=    17 RedAO= T  NBF=     9     0     3     5
 NBsUse=    17 1.00D-06 NBFU=     9     0     3     5
 Initial guess read from the read-write file.
 B after Tr=     0.000000    0.000000    0.000000
         Rot=    1.000000    0.000000    0.000000    0.000000 Ang=   0.00 deg.
 Initial guess orbital symmetries:
       Occupied  (A1) (A1) (B2) (A1) (B1) (A1) (B2) (A1) (B1)
       Virtual   (B2) (A1) (A1) (B2) (B1) (A1) (B2) (A1)
 Harris functional with IExCor=  205 diagonalized for initial guess.
 ExpMin= 1.42D-01 ExpMax= 1.21D+03 ExpMxC= 1.21D+03 IAcc=1 IRadAn=         1 AccDes= 0.00D+00
 HarFok:  IExCor=  205 AccDes= 0.00D+00 IRadAn=         1 IDoV= 1
 ScaDFX=  1.000000  1.000000  1.000000  1.000000
 FoFCou: FMM=F IPFlag=           0 FMFlag=      100000 FMFlg1=           0
         NFxFlg=           0 DoJE=T BraDBF=F KetDBF=T FulRan=T
         Omega=  0.000000  0.000000  1.000000  0.000000  0.000000 ICntrl=     500 IOpCl=  0
         NMat0=    1 NMatS0=    1 NMatT0=    0 NMatD0=    1 NMtDS0=    0 NMtDT0=    0
         I1Cent=           4 NGrid=           0.
 Petite list used in FoFCou.
 Requested convergence on RMS density matrix=1.00D-08 within 128 cycles.
 Requested convergence on MAX density matrix=1.00D-06.
 Requested convergence on             energy=1.00D-06.
 No special actions if energy rises.
 Keep R1 ints in memory in canonical form, NReq=831531.
 SCF Done:  E(RHF) =  -396.696852711     A.U. after    7 cycles
             Convg  =    0.1526D-08             -V/T =  2.0006
 Calling FoFJK, ICntrl=      2127 FMM=F ISym2X=1 I1Cent= 0 IOpClX= 0 NMat=1 NMatS=1 NMatT=0.
 ***** Axes restored to original set *****
 -------------------------------------------------------------------
 Center     Atomic                   Forces (Hartrees/Bohr)
 Number     Number              X              Y              Z
 -------------------------------------------------------------------
      1       16           0.000000000    0.000000000   -0.029844125
      2        1           0.000000000    0.017538840    0.014922063
      3        1           0.000000000   -0.017538840    0.014922063
 -------------------------------------------------------------------
 Cartesian Forces:  Max     0.029844125 RMS     0.014724241

 GradGradGradGradGradGradGradGradGradGradGradGradGradGradGradGradGradGrad
 Berny optimization.
 Internal  Forces:  Max     0.059298117 RMS     0.034235815
 Search for a local minimum.
 Step number   1 out of a maximum of   20 on scan point     6 out of   401
 All quantities printed in internal units (Hartrees-Bohrs-Radians)
 Mixed Optimization -- En-DIIS/RFO-DIIS
 Swaping is turned off.
 Second derivative matrix not updated -- first step.
 The second derivative matrix:
                          R1        R2        A1
           R1           0.26846
           R2          -0.02130   0.26846
           A1           0.02800   0.02800   0.16635
     Eigenvalues ---    0.24716   0.289751000.00000
 En-DIIS/RFO-DIIS IScMMF=        0 using points:     1   99
 RFO step:  Lambda=-1.11207066D-04.
 DIIS coeffs:      0.95857      0.04143
 Iteration  1 RMS(Cart)=  0.00039662 RMS(Int)=  0.00000004
 Iteration  2 RMS(Cart)=  0.00000003 RMS(Int)=  0.00000000
 Iteration  1 RMS(Cart)=  0.00032290 RMS(Int)=  0.00000003
 Iteration  2 RMS(Cart)=  0.00000000 RMS(Int)=  0.00000003
 ClnCor:  largest displacement from symmetrization is 1.13D-12 for atom     3.
 Variable       Old X    -DE/DX   Delta X   Delta X   Delta X     New X
                                  (DIIS)     (GDIIS)  (Total)
    R1        2.57508  -0.00006  -0.00012  -0.00007  -0.00019   2.57489
    R2        2.57508  -0.00006  -0.00012  -0.00007  -0.00019   2.57489
    A1        1.40499   0.05930  -0.00036   0.00000   0.00000   1.40499
         Item               Value     Threshold  Converged?
 Maximum Force            0.000057     0.000450     YES
 RMS     Force            0.000057     0.000300     YES
 Maximum Displacement     0.000122     0.001800     YES
 RMS     Displacement     0.000121     0.001200     YES
 Predicted change in Energy=-1.261258D-08
 Optimization completed.
    -- Stationary point found.
                           ----------------------------
                           !   Optimized Parameters   !
                           ! (Angstroms and Degrees)  !
 --------------------------                            --------------------------
 ! Name  Definition              Value          Derivative Info.                !
 --------------------------------------------------------------------------------
 ! R1    R(1,2)                  1.3627         -DE/DX =   -0.0001              !
 ! R2    R(1,3)                  1.3627         -DE/DX =   -0.0001              !
 ! A1    A(2,1,3)               80.5            -DE/DX =    0.0593              !
 --------------------------------------------------------------------------------
 Iteration  1 RMS(Cart)=  0.00155859 RMS(Int)=  0.00000080
 Iteration  2 RMS(Cart)=  0.00000063 RMS(Int)=  0.00000000
 Iteration  1 RMS(Cart)=  0.00000000 RMS(Int)=  0.00000000
 GradGradGradGradGradGradGradGradGradGradGradGradGradGradGradGradGradGrad

                          Input orientation:                          
 ---------------------------------------------------------------------
 Center     Atomic      Atomic             Coordinates (Angstroms)
 Number     Number       Type             X           Y           Z
 ---------------------------------------------------------------------
      1         16           0        0.000000    0.000000    0.107788
      2          1           0        0.000000    0.881297   -0.931402
      3          1           0        0.000000   -0.881297   -0.931402
 ---------------------------------------------------------------------
                    Distance matrix (angstroms):
                    1          2          3
     1  S    0.000000
     2  H    1.362572   0.000000
     3  H    1.362572   1.762595   0.000000
 Stoichiometry    H2S
 Framework group  C2V[C2(S),SGV(H2)]
 Deg. of freedom     2
 Full point group                 C2V     NOp   4
 Largest Abelian subgroup         C2V     NOp   4
 Largest concise Abelian subgroup C2      NOp   2
                         Standard orientation:                         
 ---------------------------------------------------------------------
 Center     Atomic      Atomic             Coordinates (Angstroms)
 Number     Number       Type             X           Y           Z
 ---------------------------------------------------------------------
      1         16           0        0.000000    0.000000    0.115466
      2          1           0        0.000000    0.881297   -0.923725
      3          1           0        0.000000   -0.881297   -0.923725
 ---------------------------------------------------------------------
 Rotational constants (GHZ):    322.8174670    246.8102366    139.8714545
 Standard basis: 3-21G (6D, 7F)
 There are     9 symmetry adapted basis functions of A1  symmetry.
 There are     0 symmetry adapted basis functions of A2  symmetry.
 There are     3 symmetry adapted basis functions of B1  symmetry.
 There are     5 symmetry adapted basis functions of B2  symmetry.
 Integral buffers will be    262144 words long.
 Raffenetti 1 integral format.
 Two-electron integral symmetry is turned on.
    17 basis functions,    33 primitive gaussians,    17 cartesian basis functions
     9 alpha electrons        9 beta electrons
       nuclear repulsion energy        12.7279542498 Hartrees.
 NAtoms=    3 NActive=    3 NUniq=    2 SFac= 1.69D+00 NAtFMM=   80 NAOKFM=F Big=F
 One-electron integrals computed using PRISM.
 NBasis=    17 RedAO= T  NBF=     9     0     3     5
 NBsUse=    17 1.00D-06 NBFU=     9     0     3     5
 Initial guess read from the read-write file.
 B after Tr=     0.000000    0.000000    0.000000
         Rot=    1.000000    0.000000    0.000000    0.000000 Ang=   0.00 deg.
 Initial guess orbital symmetries:
       Occupied  (A1) (A1) (B2) (A1) (B1) (A1) (B2) (A1) (B1)
       Virtual   (B2) (A1) (A1) (B2) (B1) (A1) (B2) (A1)
 Harris functional with IExCor=  205 diagonalized for initial guess.
 ExpMin= 1.42D-01 ExpMax= 1.21D+03 ExpMxC= 1.21D+03 IAcc=1 IRadAn=         1 AccDes= 0.00D+00
 HarFok:  IExCor=  205 AccDes= 0.00D+00 IRadAn=         1 IDoV= 1
 ScaDFX=  1.000000  1.000000  1.000000  1.000000
 FoFCou: FMM=F IPFlag=           0 FMFlag=      100000 FMFlg1=           0
         NFxFlg=           0 DoJE=T BraDBF=F KetDBF=T FulRan=T
         Omega=  0.000000  0.000000  1.000000  0.000000  0.000000 ICntrl=     500 IOpCl=  0
         NMat0=    1 NMatS0=    1 NMatT0=    0 NMatD0=    1 NMtDS0=    0 NMtDT0=    0
         I1Cent=           4 NGrid=           0.
 Petite list used in FoFCou.
 Requested convergence on RMS density matrix=1.00D-08 within 128 cycles.
 Requested convergence on MAX density matrix=1.00D-06.
 Requested convergence on             energy=1.00D-06.
 No special actions if energy rises.
 Keep R1 ints in memory in canonical form, NReq=831531.
 SCF Done:  E(RHF) =  -396.696955880     A.U. after    7 cycles
             Convg  =    0.1524D-08             -V/T =  2.0006
 Calling FoFJK, ICntrl=      2127 FMM=F ISym2X=1 I1Cent= 0 IOpClX= 0 NMat=1 NMatS=1 NMatT=0.
 ***** Axes restored to original set *****
 -------------------------------------------------------------------
 Center     Atomic                   Forces (Hartrees/Bohr)
 Number     Number              X              Y              Z
 -------------------------------------------------------------------
      1       16           0.000000000    0.000000000   -0.029679487
      2        1           0.000000000    0.017408224    0.014839744
      3        1           0.000000000   -0.017408224    0.014839744
 -------------------------------------------------------------------
 Cartesian Forces:  Max     0.029679487 RMS     0.014634057

 GradGradGradGradGradGradGradGradGradGradGradGradGradGradGradGradGradGrad
 Berny optimization.
 Internal  Forces:  Max     0.058900280 RMS     0.034006126
 Search for a local minimum.
 Step number   1 out of a maximum of   20 on scan point     7 out of   401
 All quantities printed in internal units (Hartrees-Bohrs-Radians)
 Mixed Optimization -- En-DIIS/RFO-DIIS
 Swaping is turned off.
 Second derivative matrix not updated -- first step.
 The second derivative matrix:
                          R1        R2        A1
           R1           0.26846
           R2          -0.02130   0.26846
           A1           0.02800   0.02800   0.16635
     Eigenvalues ---    0.24716   0.289751000.00000
 En-DIIS/RFO-DIIS IScMMF=        0 using points:     1   99
 RFO step:  Lambda=-1.09720790D-04.
 DIIS coeffs:      0.95995      0.04005
 Iteration  1 RMS(Cart)=  0.00044657 RMS(Int)=  0.00000005
 Iteration  2 RMS(Cart)=  0.00000003 RMS(Int)=  0.00000000
 Iteration  1 RMS(Cart)=  0.00037441 RMS(Int)=  0.00000005
 Iteration  2 RMS(Cart)=  0.00000000 RMS(Int)=  0.00000005
 ClnCor:  largest displacement from symmetrization is 1.71D-12 for atom     3.
 Variable       Old X    -DE/DX   Delta X   Delta X   Delta X     New X
                                  (DIIS)     (GDIIS)  (Total)
    R1        2.57489  -0.00006  -0.00011  -0.00008  -0.00019   2.57470
    R2        2.57489  -0.00006  -0.00011  -0.00008  -0.00019   2.57470
    A1        1.40674   0.05890  -0.00042   0.00000   0.00000   1.40674
         Item               Value     Threshold  Converged?
 Maximum Force            0.000058     0.000450     YES
 RMS     Force            0.000058     0.000300     YES
 Maximum Displacement     0.000122     0.001800     YES
 RMS     Displacement     0.000121     0.001200     YES
 Predicted change in Energy=-1.321791D-08
 Optimization completed.
    -- Stationary point found.
                           ----------------------------
                           !   Optimized Parameters   !
                           ! (Angstroms and Degrees)  !
 --------------------------                            --------------------------
 ! Name  Definition              Value          Derivative Info.                !
 --------------------------------------------------------------------------------
 ! R1    R(1,2)                  1.3626         -DE/DX =   -0.0001              !
 ! R2    R(1,3)                  1.3626         -DE/DX =   -0.0001              !
 ! A1    A(2,1,3)               80.6            -DE/DX =    0.0589              !
 --------------------------------------------------------------------------------
 Iteration  1 RMS(Cart)=  0.00155786 RMS(Int)=  0.00000080
 Iteration  2 RMS(Cart)=  0.00000063 RMS(Int)=  0.00000000
 Iteration  1 RMS(Cart)=  0.00000000 RMS(Int)=  0.00000000
 GradGradGradGradGradGradGradGradGradGradGradGradGradGradGradGradGradGrad

                          Input orientation:                          
 ---------------------------------------------------------------------
 Center     Atomic      Atomic             Coordinates (Angstroms)
 Number     Number       Type             X           Y           Z
 ---------------------------------------------------------------------
      1         16           0        0.000000    0.000000    0.107224
      2          1           0        0.000000    0.882139   -0.931120
      3          1           0        0.000000   -0.882139   -0.931120
 ---------------------------------------------------------------------
                    Distance matrix (angstroms):
                    1          2          3
     1  S    0.000000
     2  H    1.362472   0.000000
     3  H    1.362472   1.764279   0.000000
 Stoichiometry    H2S
 Framework group  C2V[C2(S),SGV(H2)]
 Deg. of freedom     2
 Full point group                 C2V     NOp   4
 Largest Abelian subgroup         C2V     NOp   4
 Largest concise Abelian subgroup C2      NOp   2
                         Standard orientation:                         
 ---------------------------------------------------------------------
 Center     Atomic      Atomic             Coordinates (Angstroms)
 Number     Number       Type             X           Y           Z
 ---------------------------------------------------------------------
      1         16           0        0.000000    0.000000    0.115372
      2          1           0        0.000000    0.882139   -0.922973
      3          1           0        0.000000   -0.882139   -0.922973
 ---------------------------------------------------------------------
 Rotational constants (GHZ):    322.2016010    247.2123841    139.8845621
 Standard basis: 3-21G (6D, 7F)
 There are     9 symmetry adapted basis functions of A1  symmetry.
 There are     0 symmetry adapted basis functions of A2  symmetry.
 There are     3 symmetry adapted basis functions of B1  symmetry.
 There are     5 symmetry adapted basis functions of B2  symmetry.
 Integral buffers will be    262144 words long.
 Raffenetti 1 integral format.
 Two-electron integral symmetry is turned on.
    17 basis functions,    33 primitive gaussians,    17 cartesian basis functions
     9 alpha electrons        9 beta electrons
       nuclear repulsion energy        12.7285786943 Hartrees.
 NAtoms=    3 NActive=    3 NUniq=    2 SFac= 1.69D+00 NAtFMM=   80 NAOKFM=F Big=F
 One-electron integrals computed using PRISM.
 NBasis=    17 RedAO= T  NBF=     9     0     3     5
 NBsUse=    17 1.00D-06 NBFU=     9     0     3     5
 Initial guess read from the read-write file.
 B after Tr=     0.000000    0.000000    0.000000
         Rot=    1.000000    0.000000    0.000000    0.000000 Ang=   0.00 deg.
 Initial guess orbital symmetries:
       Occupied  (A1) (A1) (B2) (A1) (B1) (A1) (B2) (A1) (B1)
       Virtual   (B2) (A1) (A1) (B2) (B1) (A1) (B2) (A1)
 Harris functional with IExCor=  205 diagonalized for initial guess.
 ExpMin= 1.42D-01 ExpMax= 1.21D+03 ExpMxC= 1.21D+03 IAcc=1 IRadAn=         1 AccDes= 0.00D+00
 HarFok:  IExCor=  205 AccDes= 0.00D+00 IRadAn=         1 IDoV= 1
 ScaDFX=  1.000000  1.000000  1.000000  1.000000
 FoFCou: FMM=F IPFlag=           0 FMFlag=      100000 FMFlg1=           0
         NFxFlg=           0 DoJE=T BraDBF=F KetDBF=T FulRan=T
         Omega=  0.000000  0.000000  1.000000  0.000000  0.000000 ICntrl=     500 IOpCl=  0
         NMat0=    1 NMatS0=    1 NMatT0=    0 NMatD0=    1 NMtDS0=    0 NMtDT0=    0
         I1Cent=           4 NGrid=           0.
 Petite list used in FoFCou.
 Requested convergence on RMS density matrix=1.00D-08 within 128 cycles.
 Requested convergence on MAX density matrix=1.00D-06.
 Requested convergence on             energy=1.00D-06.
 No special actions if energy rises.
 Keep R1 ints in memory in canonical form, NReq=831531.
 SCF Done:  E(RHF) =  -396.697058355     A.U. after    7 cycles
[...]
                         341       342       343       344       345
     Eigenvalues --  -396.69481-396.69470-396.69460-396.69449-396.69439
           R1           1.34473   1.34472   1.34471   1.34470   1.34469
           R2           1.34473   1.34472   1.34471   1.34470   1.34469
           A1         114.00000 114.10000 114.20000 114.30000 114.40000
                         346       347       348       349       350
     Eigenvalues --  -396.69428-396.69417-396.69407-396.69396-396.69385
           R1           1.34469   1.34468   1.34468   1.34468   1.34468
           R2           1.34469   1.34468   1.34468   1.34468   1.34468
           A1         114.50000 114.60000 114.70000 114.80000 114.90000
                         351       352       353       354       355
     Eigenvalues --  -396.69374-396.69363-396.69352-396.69341-396.69330
           R1           1.34468   1.34468   1.34469   1.34470   1.34473
           R2           1.34468   1.34468   1.34469   1.34470   1.34473
           A1         115.00000 115.10000 115.20000 115.30000 115.40000
                         356       357       358       359       360
     Eigenvalues --  -396.69319-396.69308-396.69296-396.69285-396.69274
           R1           1.34477   1.34487   1.34449   1.34449   1.34448
           R2           1.34477   1.34487   1.34449   1.34449   1.34448
           A1         115.50000 115.60000 115.70000 115.80000 115.90000
                         361       362       363       364       365
     Eigenvalues --  -396.69262-396.69251-396.69240-396.69228-396.69216
           R1           1.34447   1.34446   1.34445   1.34444   1.34443
           R2           1.34447   1.34446   1.34445   1.34444   1.34443
           A1         116.00000 116.10000 116.20000 116.30000 116.40000
                         366       367       368       369       370
     Eigenvalues --  -396.69205-396.69193-396.69181-396.69170-396.69158
           R1           1.34442   1.34441   1.34440   1.34439   1.34438
           R2           1.34442   1.34441   1.34440   1.34439   1.34438
           A1         116.50000 116.60000 116.70000 116.80000 116.90000
                         371       372       373       374       375
     Eigenvalues --  -396.69146-396.69134-396.69122-396.69110-396.69098
           R1           1.34437   1.34436   1.34435   1.34434   1.34434
           R2           1.34437   1.34436   1.34435   1.34434   1.34434
           A1         117.00000 117.10000 117.20000 117.30000 117.40000
                         376       377       378       379       380
     Eigenvalues --  -396.69086-396.69074-396.69062-396.69049-396.69037
           R1           1.34433   1.34432   1.34431   1.34431   1.34430
           R2           1.34433   1.34432   1.34431   1.34431   1.34430
           A1         117.50000 117.60000 117.70000 117.80000 117.90000
                         381       382       383       384       385
     Eigenvalues --  -396.69025-396.69012-396.69000-396.68988-396.68975
           R1           1.34429   1.34428   1.34428   1.34427   1.34427
           R2           1.34429   1.34428   1.34428   1.34427   1.34427
           A1         118.00000 118.10000 118.20000 118.30000 118.40000
                         386       387       388       389       390
     Eigenvalues --  -396.68963-396.68950-396.68937-396.68925-396.68912
           R1           1.34426   1.34426   1.34425   1.34425   1.34424
           R2           1.34426   1.34426   1.34425   1.34425   1.34424
           A1         118.50000 118.60000 118.70000 118.80000 118.90000
                         391       392       393       394       395
     Eigenvalues --  -396.68899-396.68886-396.68873-396.68860-396.68847
           R1           1.34424   1.34423   1.34423   1.34422   1.34422
           R2           1.34424   1.34423   1.34423   1.34422   1.34422
           A1         119.00000 119.10000 119.20000 119.30000 119.40000
                         396       397       398       399       400
     Eigenvalues --  -396.68834-396.68821-396.68808-396.68795-396.68782
           R1           1.34422   1.34421   1.34421   1.34421   1.34421
           R2           1.34422   1.34421   1.34421   1.34421   1.34421
           A1         119.50000 119.60000 119.70000 119.80000 119.90000
                         401
     Eigenvalues --  -396.68769
           R1           1.34421
           R2           1.34421
           A1         120.00000
                          Input orientation:                          
 ---------------------------------------------------------------------
 Center     Atomic      Atomic             Coordinates (Angstroms)
 Number     Number       Type             X           Y           Z
 ---------------------------------------------------------------------
      1         16           0        0.000000    0.000000   -0.136937
      2          1           0        0.000000    1.164116   -0.809040
      3          1           0        0.000000   -1.164116   -0.809040
 ---------------------------------------------------------------------
                    Distance matrix (angstroms):
                    1          2          3
     1  S    0.000000
     2  H    1.344205   0.000000
     3  H    1.344205   2.328232   0.000000
 Stoichiometry    H2S
 Framework group  C2V[C2(S),SGV(H2)]
 Deg. of freedom     2
 Full point group                 C2V     NOp   4
 Largest Abelian subgroup         C2V     NOp   4
 Largest concise Abelian subgroup C2      NOp   2
                         Standard orientation:                         
 ---------------------------------------------------------------------
 Center     Atomic      Atomic             Coordinates (Angstroms)
 Number     Number       Type             X           Y           Z
 ---------------------------------------------------------------------
      1         16           0        0.000000    0.000000    0.074678
      2          1           0        0.000000    1.164116   -0.597425
      3          1           0        0.000000   -1.164116   -0.597425
 ---------------------------------------------------------------------
 Rotational constants (GHZ):    590.0409192    185.0161359    140.8503931

 **********************************************************************

            Population analysis using the SCF density.

 **********************************************************************

 Orbital symmetries:
       Occupied  (A1) (A1) (B2) (A1) (B1) (A1) (B2) (A1) (B1)
       Virtual   (A1) (B2) (A1) (B2) (A1) (B1) (A1) (B2)
 The electronic state is 1-A1.
 Alpha  occ. eigenvalues --  -91.31199  -8.91570  -6.59244  -6.58808  -6.58601
 Alpha  occ. eigenvalues --   -0.98972  -0.63297  -0.44599  -0.38803
 Alpha virt. eigenvalues --    0.15088   0.22837   0.63056   0.67055   0.70757
 Alpha virt. eigenvalues --    0.70915   1.12331   1.22031
          Condensed to atoms (all electrons):
              1          2          3
     1  S   15.681285   0.271938   0.271938
     2  H    0.271938   0.628884  -0.013403
     3  H    0.271938  -0.013403   0.628884
 Mulliken atomic charges:
              1
     1  S   -0.225162
     2  H    0.112581
     3  H    0.112581
 Sum of Mulliken atomic charges =   0.00000
 Mulliken charges with hydrogens summed into heavy atoms:
              1
     1  S    0.000000
 Sum of Mulliken charges with hydrogens summed into heavy atoms =   0.00000
 Electronic spatial extent (au):  <R**2>=             44.9201
 Charge=              0.0000 electrons
 Dipole moment (field-independent basis, Debye):
    X=              0.0000    Y=              0.0000    Z=             -2.0223  Tot=              2.0223
 Quadrupole moment (field-independent basis, Debye-Ang):
   XX=            -16.8356   YY=            -11.5513   ZZ=            -15.1567
   XY=              0.0000   XZ=              0.0000   YZ=              0.0000
 Traceless Quadrupole moment (field-independent basis, Debye-Ang):
   XX=             -2.3211   YY=              2.9632   ZZ=             -0.6421
   XY=              0.0000   XZ=              0.0000   YZ=              0.0000
 Octapole moment (field-independent basis, Debye-Ang**2):
  XXX=              0.0000  YYY=              0.0000  ZZZ=             -1.6782  XYY=              0.0000
  XXY=              0.0000  XXZ=             -0.6919  XZZ=              0.0000  YZZ=              0.0000
  YYZ=             -1.1065  XYZ=              0.0000
 Hexadecapole moment (field-independent basis, Debye-Ang**3):
 XXXX=            -22.8143 YYYY=            -24.0469 ZZZZ=            -23.5874 XXXY=              0.0000
 XXXZ=              0.0000 YYYX=              0.0000 YYYZ=              0.0000 ZZZX=              0.0000
 ZZZY=              0.0000 XXYY=             -8.3949 XXZZ=             -7.7734 YYZZ=             -7.8332
 XXYZ=              0.0000 YYXZ=              0.0000 ZZXY=              0.0000
 N-N= 1.282482045994D+01 E-N=-9.706242495310D+02  KE= 3.965010807526D+02
 Symmetry A1   KE= 3.210620997653D+02
 Symmetry A2   KE= 0.000000000000D+00
 Symmetry B1   KE= 3.816773742628D+01
 Symmetry B2   KE= 3.727124356108D+01
 1|1|UNPC-DESKTOP-K2VF0AK|Scan|RHF|3-21G|H2S1|MELIH|25-Oct-2024|0||# op
 t=modredundant hf/3-21g geom=connectivity||H2S Energy||0,1|S,0.,0.,-0.
 1369370721|H,0.,1.1641159116,-0.809039712|H,0.,-1.1641159116,-0.809039
 712||Version=IA32W-G09RevA.02|State=1-A1|HF=-396.6963265,-396.6964331,
 -396.696539,-396.6966443,-396.6967488,-396.6968527,-396.6969559,-396.6
 970584,-396.6971601,-396.6972612,-396.6973616,-396.6974613,-396.697560
 3,-396.6976586,-396.6977563,-396.6978532,-396.6979494,-396.6980449,-39
 6.6981398,-396.6982339,-396.6983274,-396.6984201,-396.6985122,-396.698
 6036,-396.6986942,-396.6987842,-396.6988733,-396.6989621,-396.69905,-3
 96.6991372,-396.6992237,-396.6993095,-396.6993946,-396.699479,-396.699
 5628,-396.6996458,-396.6997281,-396.6998098,-396.6998907,-396.699971,-
 396.7000506,-396.7001295,-396.7002077,-396.7002851,-396.700362,-396.70
 04381,-396.7005135,-396.7005882,-396.7006622,-396.7007356,-396.7008082
 ,-396.7008802,-396.7009515,-396.701022,-396.7010919,-396.7011611,-396.
 7012296,-396.7012975,-396.7013646,-396.701431,-396.7014968,-396.701561
 9,-396.7016262,-396.7016899,-396.7017529,-396.7018153,-396.7018769,-39
 6.7019378,-396.701998,-396.7020577,-396.7021165,-396.7021747,-396.7022
 323,-396.7022891,-396.7023452,-396.7024007,-396.7024555,-396.7025096,-
 396.702563,-396.7026157,-396.7026678,-396.7027192,-396.7027698,-396.70
 28199,-396.7028692,-396.7029178,-396.7029658,-396.7030131,-396.7030597
 ,-396.7031057,-396.7031509,-396.7031955,-396.7032394,-396.7032826,-396
 .7033252,-396.703367,-396.7034082,-396.7034488,-396.7034886,-396.70352
 78,-396.7035663,-396.7036041,-396.7036413,-396.7036778,-396.7037136,-3
 96.7037487,-396.7037832,-396.703817,-396.70385,-396.7038824,-396.70391
 45,-396.7039456,-396.7039761,-396.7040059,-396.704035,-396.7040635,-39
 6.7040913,-396.7041184,-396.7041449,-396.7041707,-396.7041959,-396.704
 2204,-396.7042442,-396.7042673,-396.7042899,-396.7043117,-396.7043329,
 -396.7043534,-396.7043733,-396.7043925,-396.704411,-396.7044289,-396.7
 044462,-396.7044628,-396.7044787,-396.704494,-396.7045086,-396.7045226
 ,-396.7045359,-396.7045485,-396.7045606,-396.7045719,-396.7045826,-396
 .7045927,-396.7046021,-396.7046109,-396.704619,-396.7046265,-396.70463
 33,-396.7046395,-396.704645,-396.7046499,-396.7046541,-396.7046577,-39
 6.7046607,-396.704663,-396.7046647,-396.7046657,-396.7046661,-396.7046
 659,-396.704665,-396.7046635,-396.7046613,-396.7046585,-396.7046551,-3
 96.704651,-396.7046463,-396.704641,-396.704635,-396.7046284,-396.70462
 11,-396.7046132,-396.7046047,-396.7045956,-396.7045858,-396.7045754,-3
 96.7045643,-396.7045526,-396.7045407,-396.7045278,-396.7045143,-396.70
 45001,-396.7044853,-396.70447,-396.7044539,-396.7044373,-396.7044201,-
 396.7044022,-396.7043837,-396.7043646,-396.7043448,-396.7043245,-396.7
 043035,-396.7042819,-396.7042597,-396.7042369,-396.7042135,-396.704189
 4,-396.7041648,-396.7041395,-396.7041136,-396.7040872,-396.7040601,-39
 6.7040323,-396.704004,-396.7039751,-396.7039456,-396.7039154,-396.7038
 847,-396.7038533,-396.7038214,-396.7037888,-396.7037556,-396.7037219,-
 396.7036875,-396.7036525,-396.703617,-396.7035808,-396.703544,-396.703
 5067,-396.7034688,-396.7034302,-396.7033911,-396.7033514,-396.703311,-
 396.7032701,-396.7032286,-396.7031865,-396.7031438,-396.7031005,-396.7
 030566,-396.7030121,-396.702967,-396.7029214,-396.7028752,-396.7028283
 ,-396.7027809,-396.702733,-396.7026844,-396.7026352,-396.7025855,-396.
 7025352,-396.7024843,-396.7024328,-396.7023807,-396.7023281,-396.70227
 49,-396.7022211,-396.7021667,-396.7021118,-396.7020563,-396.7020002,-3
 96.7019435,-396.7018863,-396.7018285,-396.7017701,-396.7017112,-396.70
 16517,-396.7015916,-396.7015309,-396.7014697,-396.7014079,-396.7013456
 ,-396.7012827,-396.7012192,-396.7011552,-396.7010906,-396.7010254,-396
 .7009597,-396.7008934,-396.7008266,-396.7007592,-396.7006912,-396.7006
 227,-396.7005537,-396.700484,-396.7004139,-396.7003431,-396.7002719,-3
 96.7002,-396.7001276,-396.7000547,-396.6999812,-396.6999072,-396.69983
 26,-396.6997575,-396.6996818,-396.6996056,-396.6995288,-396.6994515,-3
 96.6993737,-396.6992953,-396.6992164,-396.6991369,-396.6990569,-396.69
 89763,-396.6988952,-396.6988136,-396.6987314,-396.6986487,-396.6985655
 ,-396.6984817,-396.6983974,-396.6983126,-396.6982272,-396.6981413,-396
 .6980549,-396.6979679,-396.6978805,-396.6977924,-396.6977039,-396.6976
 148,-396.6975252,-396.6974351,-396.6973445,-396.6972533,-396.6971616,-
 396.6970694,-396.6969767,-396.6968835,-396.6967897,-396.6966954,-396.6
 966006,-396.6965053,-396.6964095,-396.6963131,-396.6962163,-396.696118
 9,-396.696021,-396.6959226,-396.6958237,-396.6957243,-396.6956244,-396
 .6955243,-396.6954233,-396.6953219,-396.69522,-396.6951176,-396.695014
 6,-396.6949112,-396.6948072,-396.6947028,-396.6945978,-396.6944924,-39
 6.6943865,-396.69428,-396.6941731,-396.6940657,-396.6939577,-396.69384
 93,-396.6937404,-396.693631,-396.6935211,-396.6934107,-396.6932998,-39
 6.6931885,-396.6930765,-396.6929643,-396.6928515,-396.6927382,-396.692
 6244,-396.6925102,-396.6923954,-396.6922802,-396.6921645,-396.6920483,
 -396.6919316,-396.6918145,-396.6916968,-396.6915787,-396.6914602,-396.
 6913411,-396.6912216,-396.6911016,-396.6909812,-396.6908602,-396.69073
 88,-396.690617,-396.6904946,-396.6903718,-396.6902486,-396.6901248,-39
 6.6900006,-396.689876,-396.6897508,-396.6896253,-396.6894992,-396.6893
 727,-396.6892458,-396.6891184,-396.6889905,-396.6888622,-396.6887334,-
 396.6886042,-396.6884745,-396.6883443,-396.6882138,-396.6880827,-396.6
 879512,-396.6878193,-396.6876869|RMSD=8.523e-009,1.189e-009,1.531e-009
 ,1.531e-009,1.529e-009,1.526e-009,1.524e-009,1.522e-009,1.521e-009,1.5
 19e-009,1.517e-009,1.516e-009,1.515e-009,1.515e-009,1.515e-009,1.516e-
 009,1.518e-009,1.521e-009,1.526e-009,1.534e-009,1.546e-009,1.565e-009,
 1.595e-009,1.643e-009,1.726e-009,1.877e-009,2.190e-009,1.024e-009,1.11
 3e-009,1.439e-009,1.439e-009,1.438e-009,1.438e-009,1.439e-009,1.440e-0
 09,1.442e-009,1.447e-009,1.454e-009,1.465e-009,1.485e-009,1.520e-009,1
 .587e-009,1.726e-009,2.083e-009,5.243e-009,1.109e-009,1.395e-009,1.394
 e-009,1.392e-009,1.390e-009,1.387e-009,1.385e-009,1.384e-009,1.382e-00
 9,1.380e-009,1.379e-009,1.378e-009,1.377e-009,1.377e-009,1.378e-009,1.
 380e-009,1.384e-009,1.391e-009,1.402e-009,1.421e-009,1.452e-009,1.507e
 -009,1.612e-009,1.837e-009,8.166e-009,9.981e-009,1.317e-009,1.316e-009
 ,1.314e-009,1.313e-009,1.312e-009,1.312e-009,1.311e-009,1.312e-009,1.3
 13e-009,1.316e-009,1.323e-009,1.334e-009,1.355e-009,1.398e-009,1.490e-
 009,1.725e-009,7.408e-009,9.978e-009,1.272e-009,1.271e-009,1.269e-009,
 1.267e-009,1.265e-009,1.263e-009,1.261e-009,1.259e-009,1.256e-009,1.25
 3e-009,1.249e-009,1.245e-009,1.239e-009,1.231e-009,1.219e-009,1.203e-0
 09,1.178e-009,1.142e-009,1.092e-009,1.030e-009,9.632e-010,2.336e-009,1
 .069e-009,1.256e-009,1.252e-009,1.249e-009,1.246e-009,1.243e-009,1.240
 e-009,1.238e-009,1.235e-009,1.233e-009,1.230e-009,1.228e-009,1.226e-00
 9,1.224e-009,1.222e-009,1.220e-009,1.218e-009,1.216e-009,1.214e-009,1.
 212e-009,1.210e-009,1.209e-009,1.207e-009,1.205e-009,1.203e-009,1.203e
 -009,1.199e-009,1.202e-009,1.191e-009,1.212e-009,1.156e-009,1.290e-009
 ,9.119e-009,1.842e-009,3.663e-009,1.080e-009,1.186e-009,1.185e-009,1.1
 84e-009,1.183e-009,1.182e-009,1.181e-009,1.180e-009,1.179e-009,1.177e-
 009,1.176e-009,1.175e-009,1.173e-009,1.171e-009,1.170e-009,1.167e-009,
 1.165e-009,1.162e-009,1.160e-009,1.156e-009,1.153e-009,1.149e-009,1.14
 4e-009,1.140e-009,1.134e-009,1.129e-009,1.123e-009,1.117e-009,1.111e-0
 09,1.106e-009,1.100e-009,1.095e-009,1.776e-009,1.105e-009,1.190e-009,1
 .189e-009,1.188e-009,1.187e-009,1.186e-009,1.186e-009,1.186e-009,1.186
 e-009,1.186e-009,1.186e-009,1.186e-009,1.186e-009,1.186e-009,1.187e-00
 9,1.187e-009,1.187e-009,1.187e-009,1.188e-009,1.188e-009,1.188e-009,1.
 189e-009,1.189e-009,1.190e-009,1.190e-009,1.190e-009,1.191e-009,1.191e
 -009,1.191e-009,1.191e-009,1.191e-009,1.191e-009,1.190e-009,1.189e-009
 ,1.188e-009,1.185e-009,9.924e-009,9.032e-009,6.222e-009,5.857e-009,4.6
 75e-009,5.185e-009,1.221e-009,1.222e-009,1.223e-009,1.224e-009,1.225e-
 009,1.226e-009,1.227e-009,1.228e-009,1.229e-009,1.230e-009,1.231e-009,
 1.232e-009,1.233e-009,1.234e-009,1.235e-009,1.235e-009,1.236e-009,1.23
 7e-009,1.237e-009,9.968e-009,9.842e-009,9.706e-009,9.559e-009,9.403e-0
 09,9.236e-009,9.059e-009,8.871e-009,8.671e-009,8.461e-009,8.240e-009,8
 .007e-009,7.764e-009,7.511e-009,7.249e-009,6.979e-009,6.702e-009,6.419
 e-009,6.133e-009,5.847e-009,5.563e-009,5.285e-009,5.017e-009,4.764e-00
 9,4.529e-009,4.320e-009,4.141e-009,3.997e-009,3.891e-009,3.820e-009,3.
 779e-009,3.760e-009,3.756e-009,3.766e-009,3.793e-009,3.842e-009,3.918e
 -009,4.022e-009,4.153e-009,4.308e-009,4.484e-009,4.679e-009,4.890e-009
 ,5.113e-009,5.348e-009,5.592e-009,5.843e-009,6.099e-009,6.360e-009,6.6
 23e-009,6.888e-009,7.154e-009,7.419e-009,7.683e-009,7.946e-009,8.206e-
 009,8.464e-009,8.718e-009,8.969e-009,9.216e-009,9.460e-009,9.700e-009,
 9.936e-009,1.326e-009,1.330e-009,1.334e-009,1.337e-009,1.340e-009,1.34
 4e-009,1.347e-009,1.350e-009,1.353e-009,1.355e-009,1.358e-009,1.361e-0
 09,1.363e-009,1.366e-009,1.368e-009,1.370e-009,1.373e-009,1.375e-009,1
 .377e-009,1.379e-009,1.381e-009,1.383e-009,1.385e-009,1.386e-009,1.388
 e-009,1.390e-009,1.391e-009,1.393e-009,1.394e-009,1.395e-009,1.742e-00
 9,1.399e-009,1.404e-009,1.406e-009,1.408e-009,1.410e-009,1.411e-009,1.
 413e-009,1.414e-009,1.416e-009,1.417e-009,1.419e-009,1.420e-009,1.421e
 -009,1.422e-009,1.423e-009,1.423e-009,1.423e-009,1.423e-009,1.423e-009
 ,1.421e-009,1.417e-009,1.409e-009,1.412e-009,4.313e-009,1.433e-009,1.4
 44e-009,1.445e-009,1.447e-009,1.448e-009,1.449e-009,1.450e-009,1.452e-
 009,1.453e-009,1.454e-009,1.455e-009,1.456e-009,1.457e-009,1.459e-009,
 1.460e-009,1.461e-009,1.462e-009,1.463e-009,1.464e-009,1.465e-009,1.46
 6e-009,1.467e-009,1.468e-009,1.469e-009,1.470e-009,1.471e-009,1.472e-0
 09,1.473e-009,1.474e-009,1.475e-009,1.476e-009,1.476e-009,1.477e-009,1
 .478e-009,1.479e-009,1.480e-009,1.480e-009,1.481e-009,1.482e-009,1.483
 e-009,1.483e-009,1.484e-009,1.485e-009|PG=C02V [C2(S1),SGV(H2)]||@


 A MAN SHOULD NEVER BE ASHAMED TO OWN HE HAS BEEN IN THE WRONG
 WHICH IS BUT SAYING IN OTHER WORDS,
 THAT HE IS WISER TODAY THAN HE WAS YESTERDAY.

                          -- JONATHAN SWIFT
 Job cpu time:  0 days  0 hours  4 minutes 35.0 seconds.
 File lengths (MBytes):  RWF=     14 Int=      0 D2E=      0 Chk=     15 Scr=      1
 Normal termination of Gaussian 09 at Fri Oct 25 18:35:15 2024.
