 Entering Link 1 = C:\G09W\l1.exe PID=     14420.
  
 Copyright (c) 1988,1990,1992,1993,1995,1998,2003,2009, Gaussian, Inc.
                  All Rights Reserved.
  
 This is part of the Gaussian(R) 09 program.  It is based on
 the Gaussian(R) 03 system (copyright 2003, Gaussian, Inc.),
 the Gaussian(R) 98 system (copyright 1998, Gaussian, Inc.),
 the Gaussian(R) 94 system (copyright 1995, Gaussian, Inc.),
 the Gaussian 92(TM) system (copyright 1992, Gaussian, Inc.),
 the Gaussian 90(TM) system (copyright 1990, Gaussian, Inc.),
 the Gaussian 88(TM) system (copyright 1988, Gaussian, Inc.),
 the Gaussian 86(TM) system (copyright 1986, Carnegie Mellon
 University), and the Gaussian 82(TM) system (copyright 1983,
 Carnegie Mellon University). Gaussian is a federally registered
 trademark of Gaussian, Inc.
  
 This software contains proprietary and confidential information,
 including trade secrets, belonging to Gaussian, Inc.
  
 This software is provided under written license and may be
 used, copied, transmitted, or stored only in accord with that
 written license.
  
 The following legend is applicable only to US Government
 contracts under FAR:
  
                    RESTRICTED RIGHTS LEGEND
  
 Use, reproduction and disclosure by the US Government is
 subject to restrictions as set forth in subparagraphs (a)
 and (c) of the Commercial Computer Software - Restricted
 Rights clause in FAR 52.227-19.
  
 Gaussian, Inc.
 340 Quinnipiac St., Bldg. 40, Wallingford CT 06492
  
  
 ---------------------------------------------------------------
 Warning -- This program may not be used in any manner that
 competes with the business of Gaussian, Inc. or will provide
 assistance to any competitor of Gaussian, Inc.  The licensee
 of this program is prohibited from giving any competitor of
 Gaussian, Inc. access to this program.  By using this program,
 the user acknowledges that Gaussian, Inc. is engaged in the
 business of creating and licensing software in the field of
 computational chemistry and represents and warrants to the
 licensee that it is not a competitor of Gaussian, Inc. and that
 it will not use this program in any manner prohibited above.
 ---------------------------------------------------------------
  

 Cite this work as:
 Gaussian 09, Revision A.02,
 M. J. Frisch, G. W. Trucks, H. B. Schlegel, G. E. Scuseria, 
 M. A. Robb, J. R. Cheeseman, G. Scalmani, V. Barone, B. Mennucci, 
 G. A. Petersson, H. Nakatsuji, M. Caricato, X. Li, H. P. Hratchian, 
 A. F. Izmaylov, J. Bloino, G. Zheng, J. L. Sonnenberg, M. Hada, 
 M. Ehara, K. Toyota, R. Fukuda, J. Hasegawa, M. Ishida, T. Nakajima, 
 Y. Honda, O. Kitao, H. Nakai, T. Vreven, J. A. Montgomery, Jr., 
 J. E. Peralta, F. Ogliaro, M. Bearpark, J. J. Heyd, E. Brothers, 
 K. N. Kudin, V. N. Staroverov, R. Kobayashi, J. Normand, 
 K. Raghavachari, A. Rendell, J. C. Burant, S. S. Iyengar, J. Tomasi, 
 M. Cossi, N. Rega, J. M. Millam, M. Klene, J. E. Knox, J. B. Cross, 
 V. Bakken, C. Adamo, J. Jaramillo, R. Gomperts, R. E. Stratmann, 
 O. Yazyev, A. J. Austin, R. Cammi, C. Pomelli, J. W. Ochterski, 
 R. L. Martin, K. Morokuma, V. G. Zakrzewski, G. A. Voth, 
 P. Salvador, J. J. Dannenberg, S. Dapprich, A. D. Daniels, 
 O. Farkas, J. B. Foresman, J. V. Ortiz, J. Cioslowski, 
 and D. J. Fox, Gaussian, Inc., Wallingford CT, 2009.
 
 ******************************************
 Gaussian 09:  IA32W-G09RevA.02 11-Jun-2009
                25-Oct-2024 
 ******************************************
 %chk=C:\Users\melih\Desktop\Gaussian\H2S\OptFreq.chk
 ---------------------------------
 # freq hf/3-21g geom=connectivity
 ---------------------------------
 1/10=4,30=1,38=1,57=2/1,3;
 2/12=2,17=6,18=5,40=1/2;
 3/5=5,11=9,16=1,25=1,30=1,71=2/1,2,3;
 4//1;
 5/5=2,38=5,98=1/2;
 8/6=4,10=90,11=11/1;
 10/13=10,15=4/2;
 11/6=3,8=1,9=11,15=111,16=1/1,2,10;
 10/6=1/2;
 6/7=2,8=2,9=2,10=2,18=1,28=1/1;
 7/8=1,10=1,25=1/1,2,3,16;
 1/10=4,30=1/3;
 99//99;
 ------------------------------
 H2S Optimization and Frequency
 ------------------------------
 Symbolic Z-matrix:
 Charge =  0 Multiplicity = 1
 S                    -1.5528    0.40373   0. 
 H                    -0.2428    0.40373   0. 
 H                    -1.99008   1.63859   0. 
 

 GradGradGradGradGradGradGradGradGradGradGradGradGradGradGradGradGradGrad
 Berny optimization.
 Initialization pass.
 Trust Radius=3.00D-01 FncErr=1.00D-07 GrdErr=1.00D-07
 Number of steps in this run=   2 maximum allowed number of steps=   2.
 GradGradGradGradGradGradGradGradGradGradGradGradGradGradGradGradGradGrad

                          Input orientation:                          
 ---------------------------------------------------------------------
 Center     Atomic      Atomic             Coordinates (Angstroms)
 Number     Number       Type             X           Y           Z
 ---------------------------------------------------------------------
      1         16           0       -1.552795    0.403727    0.000000
      2          1           0       -0.242795    0.403727    0.000000
      3          1           0       -1.990082    1.638587    0.000000
 ---------------------------------------------------------------------
                    Distance matrix (angstroms):
                    1          2          3
     1  S    0.000000
     2  H    1.310000   0.000000
     3  H    1.310000   2.139601   0.000000
 Stoichiometry    H2S
 Framework group  C2V[C2(S),SGV(H2)]
 Deg. of freedom     2
 Full point group                 C2V     NOp   4
 Largest Abelian subgroup         C2V     NOp   4
 Largest concise Abelian subgroup C2      NOp   2
                         Standard orientation:                         
 ---------------------------------------------------------------------
 Center     Atomic      Atomic             Coordinates (Angstroms)
 Number     Number       Type             X           Y           Z
 ---------------------------------------------------------------------
      1         16           0        0.000000    0.000000    0.084007
      2          1           0        0.000000    1.069800   -0.672054
      3          1           0        0.000000   -1.069800   -0.672054
 ---------------------------------------------------------------------
 Rotational constants (GHZ):    466.2733406    219.0768627    149.0474507
 Standard basis: 3-21G (6D, 7F)
 There are     9 symmetry adapted basis functions of A1  symmetry.
 There are     0 symmetry adapted basis functions of A2  symmetry.
 There are     3 symmetry adapted basis functions of B1  symmetry.
 There are     5 symmetry adapted basis functions of B2  symmetry.
 Integral buffers will be    262144 words long.
 Raffenetti 1 integral format.
 Two-electron integral symmetry is turned on.
    17 basis functions,    33 primitive gaussians,    17 cartesian basis functions
     9 alpha electrons        9 beta electrons
       nuclear repulsion energy        13.1737913625 Hartrees.
 NAtoms=    3 NActive=    3 NUniq=    2 SFac= 1.69D+00 NAtFMM=   80 NAOKFM=F Big=F
 One-electron integrals computed using PRISM.
 NBasis=    17 RedAO= T  NBF=     9     0     3     5
 NBsUse=    17 1.00D-06 NBFU=     9     0     3     5
 Harris functional with IExCor=  205 diagonalized for initial guess.
 ExpMin= 1.42D-01 ExpMax= 1.21D+03 ExpMxC= 1.21D+03 IAcc=1 IRadAn=         1 AccDes= 0.00D+00
 HarFok:  IExCor=  205 AccDes= 0.00D+00 IRadAn=         1 IDoV= 1
 ScaDFX=  1.000000  1.000000  1.000000  1.000000
 FoFCou: FMM=F IPFlag=           0 FMFlag=      100000 FMFlg1=           0
         NFxFlg=           0 DoJE=T BraDBF=F KetDBF=T FulRan=T
         Omega=  0.000000  0.000000  1.000000  0.000000  0.000000 ICntrl=     500 IOpCl=  0
         NMat0=    1 NMatS0=    1 NMatT0=    0 NMatD0=    1 NMtDS0=    0 NMtDT0=    0
         I1Cent=           4 NGrid=           0.
 Petite list used in FoFCou.
 Initial guess orbital symmetries:
       Occupied  (A1) (A1) (B2) (A1) (B1) (A1) (B2) (A1) (B1)
       Virtual   (A1) (B2) (B2) (A1) (A1) (B1) (A1) (B2)
 The electronic state of the initial guess is 1-A1.
 Requested convergence on RMS density matrix=1.00D-08 within 128 cycles.
 Requested convergence on MAX density matrix=1.00D-06.
 Requested convergence on             energy=1.00D-06.
 No special actions if energy rises.
 Keep R1 ints in memory in canonical form, NReq=831531.
 SCF Done:  E(RHF) =  -396.697720247     A.U. after    9 cycles
             Convg  =    0.4472D-08             -V/T =  2.0002
 Range of M.O.s used for correlation:     1    17
 NBasis=    17 NAE=     9 NBE=     9 NFC=     0 NFV=     0
 NROrb=     17 NOA=     9 NOB=     9 NVA=     8 NVB=     8
          Differentiating once with respect to electric field.
                with respect to dipole field.
          Electric field/nuclear overlap derivatives assumed to be zero.
          Keep R1 ints in memory in canonical form, NReq=812055.
          There are     3 degrees of freedom in the 1st order CPHF.  IDoFFX=0.
      3 vectors produced by pass  0 Test12= 2.40D-15 3.33D-08 XBig12= 5.41D+00 1.69D+00.
 AX will form     3 AO Fock derivatives at one time.
      3 vectors produced by pass  1 Test12= 2.40D-15 3.33D-08 XBig12= 5.95D-02 1.43D-01.
      3 vectors produced by pass  2 Test12= 2.40D-15 3.33D-08 XBig12= 3.10D-03 3.16D-02.
      3 vectors produced by pass  3 Test12= 2.40D-15 3.33D-08 XBig12= 2.96D-05 2.73D-03.
      3 vectors produced by pass  4 Test12= 2.40D-15 3.33D-08 XBig12= 1.81D-07 1.99D-04.
      3 vectors produced by pass  5 Test12= 2.40D-15 3.33D-08 XBig12= 1.33D-09 1.80D-05.
      3 vectors produced by pass  6 Test12= 2.40D-15 3.33D-08 XBig12= 8.09D-12 1.39D-06.
      1 vectors produced by pass  7 Test12= 2.40D-15 3.33D-08 XBig12= 6.79D-14 1.22D-07.
 Inverted reduced A of dimension    22 with in-core refinement.
 End of Minotr Frequency-dependent properties file   721 does not exist.
 End of Minotr Frequency-dependent properties file   722 does not exist.
 Symmetrizing basis deriv contribution to polar:
 IMax=3 JMax=2 DiffMx= 0.00D+00
 G2DrvN: will do     4 centers at a time, making    1 passes doing MaxLOS=1.
 Calling FoFCou, ICntrl=  3107 FMM=F I1Cent=   0 AccDes= 0.00D+00.
 FoFDir/FoFCou used for L=0 through L=1.
 End of G2Drv Frequency-dependent properties file   721 does not exist.
 End of G2Drv Frequency-dependent properties file   722 does not exist.
          IDoAtm=111
          Differentiating once with respect to electric field.
                with respect to dipole field.
          Differentiating once with respect to nuclear coordinates.
          Keep R1 ints in memory in canonical form, NReq=812090.
          There are     9 degrees of freedom in the 1st order CPHF.  IDoFFX=4.
 Will reuse    3 saved solutions.
      6 vectors produced by pass  0 Test12= 8.00D-16 1.11D-08 XBig12= 2.93D-02 1.15D-01.
 AX will form     6 AO Fock derivatives at one time.
      6 vectors produced by pass  1 Test12= 8.00D-16 1.11D-08 XBig12= 7.70D-04 2.12D-02.
      6 vectors produced by pass  2 Test12= 8.00D-16 1.11D-08 XBig12= 1.30D-05 1.70D-03.
      6 vectors produced by pass  3 Test12= 8.00D-16 1.11D-08 XBig12= 1.06D-07 1.61D-04.
      6 vectors produced by pass  4 Test12= 8.00D-16 1.11D-08 XBig12= 7.93D-10 1.03D-05.
      5 vectors produced by pass  5 Test12= 8.00D-16 1.11D-08 XBig12= 2.08D-12 6.42D-07.
      2 vectors produced by pass  6 Test12= 8.00D-16 1.11D-08 XBig12= 8.68D-15 5.41D-08.
 Inverted reduced A of dimension    37 with in-core refinement.
 Isotropic polarizability for W=    0.000000       12.01 Bohr**3.
 End of Minotr Frequency-dependent properties file   721 does not exist.
 End of Minotr Frequency-dependent properties file   722 does not exist.

 **********************************************************************

            Population analysis using the SCF density.

 **********************************************************************

 Orbital symmetries:
       Occupied  (A1) (A1) (B2) (A1) (B1) (A1) (B2) (A1) (B1)
       Virtual   (A1) (B2) (A1) (B2) (A1) (B1) (A1) (B2)
 The electronic state is 1-A1.
 Alpha  occ. eigenvalues --  -91.31092  -8.91595  -6.59221  -6.58856  -6.58590
 Alpha  occ. eigenvalues --   -1.00345  -0.63051  -0.46532  -0.38995
 Alpha virt. eigenvalues --    0.19081   0.21672   0.63815   0.65550   0.70100
 Alpha virt. eigenvalues --    0.70809   1.14618   1.23190
          Condensed to atoms (all electrons):
              1          2          3
     1  S   15.638542   0.273594   0.273594
     2  H    0.273594   0.654777  -0.021237
     3  H    0.273594  -0.021237   0.654777
 Mulliken atomic charges:
              1
     1  S   -0.185730
     2  H    0.092865
     3  H    0.092865
 Sum of Mulliken atomic charges =   0.00000
 Mulliken charges with hydrogens summed into heavy atoms:
              1
     1  S    0.000000
 Sum of Mulliken charges with hydrogens summed into heavy atoms =   0.00000
 APT atomic charges:
              1
     1  S   -0.145692
     2  H    0.072846
     3  H    0.072846
 Sum of APT charges=   0.00000
 APT Atomic charges with hydrogens summed into heavy atoms:
              1
     1  S    0.000000
     2  H    0.000000
     3  H    0.000000
 Sum of APT charges=   0.00000
 Electronic spatial extent (au):  <R**2>=             44.1674
 Charge=              0.0000 electrons
 Dipole moment (field-independent basis, Debye):
    X=              0.0000    Y=              0.0000    Z=             -1.9789  Tot=              1.9789
 Quadrupole moment (field-independent basis, Debye-Ang):
   XX=            -16.7106   YY=            -12.0320   ZZ=            -14.7886
   XY=              0.0000   XZ=              0.0000   YZ=              0.0000
 Traceless Quadrupole moment (field-independent basis, Debye-Ang):
   XX=             -2.2002   YY=              2.4784   ZZ=             -0.2782
   XY=              0.0000   XZ=              0.0000   YZ=              0.0000
 Octapole moment (field-independent basis, Debye-Ang**2):
  XXX=              0.0000  YYY=              0.0000  ZZZ=             -1.7267  XYY=              0.0000
  XXY=              0.0000  XXZ=             -0.7289  XZZ=              0.0000  YZZ=              0.0000
  YYZ=             -0.8931  XYZ=              0.0000
 Hexadecapole moment (field-independent basis, Debye-Ang**3):
 XXXX=            -22.5955 YYYY=            -23.3404 ZZZZ=            -23.7385 XXXY=              0.0000
 XXXZ=              0.0000 YYYX=              0.0000 YYYZ=              0.0000 ZZZX=              0.0000
 ZZZY=              0.0000 XXYY=             -7.9940 XXZZ=             -7.7841 YYZZ=             -7.5519
 XXYZ=              0.0000 YYXZ=              0.0000 ZZXY=              0.0000
 N-N= 1.317379136248D+01 E-N=-9.713769908850D+02  KE= 3.965994911238D+02
 Symmetry A1   KE= 3.210940146874D+02
 Symmetry A2   KE= 0.000000000000D+00
 Symmetry B1   KE= 3.817503426013D+01
 Symmetry B2   KE= 3.733044217633D+01
  Exact polarizability:   6.106   0.000  19.269   0.000   0.000  10.659
 Approx polarizability:   4.493   0.000  16.245   0.000   0.000   7.933
 Calling FoFJK, ICntrl=    100127 FMM=F ISym2X=1 I1Cent= 0 IOpClX= 0 NMat=1 NMatS=1 NMatT=0.
 Full mass-weighted force constant matrix:
 Low frequencies --- -714.3083 -462.5414 -260.5153   -0.0057   -0.0057   -0.0038
 Low frequencies --- 1182.6699 2919.6370 2983.7936
 Diagonal vibrational polarizability:
        0.0000000       0.0044725       0.2745543
 Diagonal vibrational hyperpolarizability:
        0.0000000       0.0000000      15.8751069
 Harmonic frequencies (cm**-1), IR intensities (KM/Mole), Raman scattering
 activities (A**4/AMU), depolarization ratios for plane and unpolarized
 incident light, reduced masses (AMU), force constants (mDyne/A),
 and normal coordinates:
                     1                      2                      3
                    A1                     A1                     B2
 Frequencies --  1182.6699              2919.6370              2983.0108
 Red. masses --     1.0465                 1.0289                 1.0488
 Frc consts  --     0.8624                 5.1677                 5.4986
 IR Inten    --    10.7667                21.3499                 1.4788
 Raman Activ --    46.2466               205.6757               108.6683
 Depolar (P) --     0.6905                 0.2395                 0.7500
 Depolar (U) --     0.8169                 0.3865                 0.8571
  Atom  AN      X      Y      Z        X      Y      Z        X      Y      Z
     1  16     0.00   0.00   0.04     0.00   0.00   0.03     0.00   0.04   0.00
     2   1     0.00  -0.43  -0.56     0.00   0.57  -0.41     0.00  -0.58   0.41
     3   1     0.00   0.43  -0.56     0.00  -0.57  -0.41     0.00  -0.58  -0.41

 -------------------
 - Thermochemistry -
 -------------------
 Temperature   298.150 Kelvin.  Pressure   1.00000 Atm.
 Atom     1 has atomic number 16 and mass  31.97207
 Atom     2 has atomic number  1 and mass   1.00783
 Atom     3 has atomic number  1 and mass   1.00783
 Molecular mass:    33.98772 amu.
 Principal axes and moments of inertia in atomic units:
                           1         2         3
     Eigenvalues --     3.87056   8.23794  12.10850
           X            0.00000   0.00000   1.00000
           Y            1.00000   0.00000   0.00000
           Z            0.00000   1.00000   0.00000
 This molecule is an asymmetric top.
 Rotational symmetry number  2.
 Rotational temperatures (Kelvin)     22.37756    10.51402     7.15314
 Rotational constants (GHZ):         466.27334   219.07686   149.04745
 Zero-point vibrational energy      42379.6 (Joules/Mol)
                                   10.12897 (Kcal/Mol)
 Vibrational temperatures:   1701.60  4200.70  4291.88
          (Kelvin)
 
 Zero-point correction=                           0.016142 (Hartree/Particle)
 Thermal correction to Energy=                    0.018992
 Thermal correction to Enthalpy=                  0.019936
 Thermal correction to Gibbs Free Energy=        -0.003293
 Sum of electronic and zero-point Energies=           -396.681579
 Sum of electronic and thermal Energies=              -396.678728
 Sum of electronic and thermal Enthalpies=            -396.677784
 Sum of electronic and thermal Free Energies=         -396.701013
 
                     E (Thermal)             CV                S
                      KCal/Mol        Cal/Mol-Kelvin    Cal/Mol-Kelvin
 Total                   11.918              6.179             48.889
 Electronic               0.000              0.000              0.000
 Translational            0.889              2.981             36.501
 Rotational               0.889              2.981             12.343
 Vibrational             10.140              0.217              0.044
                       Q            Log10(Q)             Ln(Q)
 Total Bot       0.326937D+02          1.514464          3.487183
 Total V=0       0.869044D+09          8.939042         20.582905
 Vib (Bot)       0.377457D-07         -7.423132        -17.092393
 Vib (V=0)       0.100333D+01          0.001446          0.003329
 Electronic      0.100000D+01          0.000000          0.000000
 Translational   0.778822D+07          6.891438         15.868123
 Rotational      0.111214D+03          2.046158          4.711453
 ***** Axes restored to original set *****
 -------------------------------------------------------------------
 Center     Atomic                   Forces (Hartrees/Bohr)
 Number     Number              X              Y              Z
 -------------------------------------------------------------------
      1       16          -0.030190273   -0.042718248    0.000000000
      2        1           0.019368563    0.018338965    0.000000000
      3        1           0.010821710    0.024379283    0.000000000
 -------------------------------------------------------------------
 Cartesian Forces:  Max     0.042718248 RMS     0.021497336

 GradGradGradGradGradGradGradGradGradGradGradGradGradGradGradGradGradGrad
 Berny optimization.
 Search for a local minimum.
 Step number   1 out of a maximum of    2
 All quantities printed in internal units (Hartrees-Bohrs-Radians)
 Second derivative matrix not updated -- analytic derivatives used.
 The second derivative matrix:
                          X1        Y1        Z1        X2        Y2
           X1           0.37158
           Y1          -0.06257   0.32727
           Z1           0.00000   0.00000  -0.03661
           X2          -0.32067   0.00030   0.00000   0.32219
           Y2          -0.03326  -0.02875   0.00000   0.00440   0.02172
           Z2           0.00000   0.00000   0.01831   0.00000   0.00000
           X3          -0.05091   0.06227   0.00000  -0.00152   0.02885
           Y3           0.09582  -0.29852   0.00000  -0.00470   0.00703
           Z3           0.00000   0.00000   0.01831   0.00000   0.00000
                          Z2        X3        Y3        Z3
           Z2          -0.01045
           X3           0.00000   0.05243
           Y3           0.00000  -0.09112   0.29148
           Z3          -0.00786   0.00000   0.00000  -0.01045
     Eigenvalues ---    0.07479   0.43627   0.53055
 Quadratic step=3.937D-01 exceeds max=3.000D-01 adjusted using Lamda=-2.531D-02.
 Angle between NR and scaled steps=   3.73 degrees.
 Angle between quadratic step and forces=  50.24 degrees.
 ClnCor:  largest displacement from symmetrization is 1.36D-15 for atom     3.
 Linear search not attempted -- first point.
 ClnCor:  largest displacement from symmetrization is 4.97D-16 for atom     1.
 TrRot= -0.049667 -0.070277  0.000000  0.000000  0.000000  0.000000
 Variable       Old X    -DE/DX   Delta X   Delta X   Delta X     New X
                                 (Linear)    (Quad)   (Total)
    X1       -2.93436  -0.03019   0.00000  -0.04967  -0.09933  -3.03369
    Y1        0.76293  -0.04272   0.00000  -0.07028  -0.14055   0.62238
    Z1        0.00000   0.00000   0.00000   0.00000   0.00000   0.00000
    X2       -0.45882   0.01937   0.00000   0.01108  -0.03859  -0.49740
    Y2        0.76293   0.01834   0.00000   0.20293   0.13265   0.89558
    Z2        0.00000   0.00000   0.00000   0.00000   0.00000   0.00000
    X3       -3.76071   0.01082   0.00000   0.18759   0.13792  -3.62279
    Y3        3.09648   0.02438   0.00000   0.07818   0.00791   3.10439
    Z3        0.00000   0.00000   0.00000   0.00000   0.00000   0.00000
         Item               Value     Threshold  Converged?
 Maximum Force            0.042718     0.000450     NO 
 RMS     Force            0.021497     0.000300     NO 
 Maximum Displacement     0.140555     0.001800     NO 
 RMS     Displacement     0.086790     0.001200     NO 
 Predicted change in Energy=-7.326074D-03
 GradGradGradGradGradGradGradGradGradGradGradGradGradGradGradGradGradGrad

 1|1|UNPC-DESKTOP-K2VF0AK|Freq|RHF|3-21G|H2S1|MELIH|25-Oct-2024|0||# fr
 eq hf/3-21g geom=connectivity||H2S Optimization and Frequency||0,1|S,-
 1.5527950698,0.4037266999,0.|H,-0.24279507,0.4037267,0.|H,-1.990082064
 ,1.63858705,0.||Version=IA32W-G09RevA.02|State=1-A1|HF=-396.6977202|RM
 SD=4.472e-009|RMSF=2.150e-002|ZeroPoint=0.0161415|Thermal=0.0189921|Di
 pole=0.4493518,0.6358181,0.|DipoleDeriv=-0.0074518,0.1733398,0.,0.1733
 398,0.1153139,0.,0.,0.,-0.5449368,-0.0840647,-0.064251,0.,-0.1712654,0
 .0301336,0.,0.,0.,0.2724684,0.0915165,-0.1090888,0.,-0.0020744,-0.1454
 475,0.,0.,0.,0.2724684|Polar=16.4008819,-4.0579188,13.526913,0.,0.,6.1
 064378|PolarDeriv=-10.3281878,-4.0045729,-0.5155576,0.,0.,1.2818873,-2
 .6907476,-1.4440775,-12.6527973,0.,0.,1.8138286,0.,0.,0.,-1.839041,-2.
 6021828,0.,12.800089,0.2026727,0.8528875,0.,0.,-1.8002231,1.3843708,3.
 9187215,0.4702326,0.,0.,-0.0876166,0.,0.,0.,3.5779892,-0.5777285,0.,-2
 .4719012,3.8019002,-0.3373299,0.,0.,0.5183358,1.3063768,-2.474644,12.1
 825647,0.,0.,-1.726212,0.,0.,0.,-1.7389482,3.1799113,0.|HyperPolar=39.
 2268081,3.535318,-13.4009468,33.0074309,0.,0.,0.,1.6871604,2.3872768,0
 .|PG=C02V [C2(S1),SGV(H2)]|NImag=0||0.37157994,-0.06256517,0.32726897,
 0.,0.,-0.03661228,-0.32067092,0.00029595,0.,0.32219230,-0.03325848,-0.
 02875354,0.,0.00440480,0.02172191,0.,0.,0.01830614,0.,0.,-0.01044730,-
 0.05090902,0.06226922,0.,-0.00152138,0.02885368,0.,0.05243040,0.095823
 65,-0.29851543,0.,-0.00470075,0.00703162,0.,-0.09112290,0.29148381,0.,
 0.,0.01830614,0.,0.,-0.00785883,0.,0.,-0.01044730||0.03019027,0.042718
 25,0.,-0.01936856,-0.01833896,0.,-0.01082171,-0.02437928,0.|||@


 THE CAUTIOUS SELDOM ERR...CONFUCIUS                   
 Job cpu time:  0 days  0 hours  0 minutes  7.0 seconds.
 File lengths (MBytes):  RWF=      5 Int=      0 D2E=      0 Chk=      1 Scr=      1
 Normal termination of Gaussian 09 at Fri Oct 25 18:20:40 2024.
