 Entering Link 1 = C:\G09W\l1.exe PID=      8244.
  
 Copyright (c) 1988,1990,1992,1993,1995,1998,2003,2009, Gaussian, Inc.
                  All Rights Reserved.
  
 This is part of the Gaussian(R) 09 program.  It is based on
 the Gaussian(R) 03 system (copyright 2003, Gaussian, Inc.),
 the Gaussian(R) 98 system (copyright 1998, Gaussian, Inc.),
 the Gaussian(R) 94 system (copyright 1995, Gaussian, Inc.),
 the Gaussian 92(TM) system (copyright 1992, Gaussian, Inc.),
 the Gaussian 90(TM) system (copyright 1990, Gaussian, Inc.),
 the Gaussian 88(TM) system (copyright 1988, Gaussian, Inc.),
 the Gaussian 86(TM) system (copyright 1986, Carnegie Mellon
 University), and the Gaussian 82(TM) system (copyright 1983,
 Carnegie Mellon University). Gaussian is a federally registered
 trademark of Gaussian, Inc.
  
 This software contains proprietary and confidential information,
 including trade secrets, belonging to Gaussian, Inc.
  
 This software is provided under written license and may be
 used, copied, transmitted, or stored only in accord with that
 written license.
  
 The following legend is applicable only to US Government
 contracts under FAR:
  
                    RESTRICTED RIGHTS LEGEND
  
 Use, reproduction and disclosure by the US Government is
 subject to restrictions as set forth in subparagraphs (a)
 and (c) of the Commercial Computer Software - Restricted
 Rights clause in FAR 52.227-19.
  
 Gaussian, Inc.
 340 Quinnipiac St., Bldg. 40, Wallingford CT 06492
  
  
 ---------------------------------------------------------------
 Warning -- This program may not be used in any manner that
 competes with the business of Gaussian, Inc. or will provide
 assistance to any competitor of Gaussian, Inc.  The licensee
 of this program is prohibited from giving any competitor of
 Gaussian, Inc. access to this program.  By using this program,
 the user acknowledges that Gaussian, Inc. is engaged in the
 business of creating and licensing software in the field of
 computational chemistry and represents and warrants to the
 licensee that it is not a competitor of Gaussian, Inc. and that
 it will not use this program in any manner prohibited above.
 ---------------------------------------------------------------
  

 Cite this work as:
 Gaussian 09, Revision A.02,
 M. J. Frisch, G. W. Trucks, H. B. Schlegel, G. E. Scuseria, 
 M. A. Robb, J. R. Cheeseman, G. Scalmani, V. Barone, B. Mennucci, 
 G. A. Petersson, H. Nakatsuji, M. Caricato, X. Li, H. P. Hratchian, 
 A. F. Izmaylov, J. Bloino, G. Zheng, J. L. Sonnenberg, M. Hada, 
 M. Ehara, K. Toyota, R. Fukuda, J. Hasegawa, M. Ishida, T. Nakajima, 
 Y. Honda, O. Kitao, H. Nakai, T. Vreven, J. A. Montgomery, Jr., 
 J. E. Peralta, F. Ogliaro, M. Bearpark, J. J. Heyd, E. Brothers, 
 K. N. Kudin, V. N. Staroverov, R. Kobayashi, J. Normand, 
 K. Raghavachari, A. Rendell, J. C. Burant, S. S. Iyengar, J. Tomasi, 
 M. Cossi, N. Rega, J. M. Millam, M. Klene, J. E. Knox, J. B. Cross, 
 V. Bakken, C. Adamo, J. Jaramillo, R. Gomperts, R. E. Stratmann, 
 O. Yazyev, A. J. Austin, R. Cammi, C. Pomelli, J. W. Ochterski, 
 R. L. Martin, K. Morokuma, V. G. Zakrzewski, G. A. Voth, 
 P. Salvador, J. J. Dannenberg, S. Dapprich, A. D. Daniels, 
 O. Farkas, J. B. Foresman, J. V. Ortiz, J. Cioslowski, 
 and D. J. Fox, Gaussian, Inc., Wallingford CT, 2009.
 
 ******************************************
 Gaussian 09:  IA32W-G09RevA.02 11-Jun-2009
                28-Oct-2024 
 ******************************************
 %chk=C:\Users\melih\Desktop\Gaussian\H2S\OptFreqH2S.chk
 -------------------------------------
 # opt freq hf/3-21g geom=connectivity
 -------------------------------------
 1/18=20,19=15,38=1,57=2/1,3;
 2/9=110,12=2,17=6,18=5,40=1/2;
 3/5=5,11=9,16=1,25=1,30=1,71=1/1,2,3;
 4//1;
 5/5=2,38=5/2;
 6/7=2,8=2,9=2,10=2,28=1/1;
 7//1,2,3,16;
 1/18=20,19=15/3(2);
 2/9=110/2;
 99//99;
 2/9=110/2;
 3/5=5,11=9,16=1,25=1,30=1,71=1/1,2,3;
 4/5=5,16=3/1;
 5/5=2,38=5/2;
 7//1,2,3,16;
 1/18=20,19=15/3(-5);
 2/9=110/2;
 6/7=2,8=2,9=2,10=2,19=2,28=1/1;
 99/9=1/99;
 -------------------
 Title Card Required
 -------------------
 Symbolic Z-matrix:
 Charge =  0 Multiplicity = 1
 S                     2.04969  -0.40373   0. 
 H                     3.35969  -0.40373   0. 
 H                     1.6124    0.83113   0. 
 

 GradGradGradGradGradGradGradGradGradGradGradGradGradGradGradGradGradGrad
 Berny optimization.
 Initialization pass.
                           ----------------------------
                           !    Initial Parameters    !
                           ! (Angstroms and Degrees)  !
 --------------------------                            --------------------------
 ! Name  Definition              Value          Derivative Info.                !
 --------------------------------------------------------------------------------
 ! R1    R(1,2)                  1.31           estimate D2E/DX2                !
 ! R2    R(1,3)                  1.31           estimate D2E/DX2                !
 ! A1    A(2,1,3)              109.5            estimate D2E/DX2                !
 --------------------------------------------------------------------------------
 Trust Radius=3.00D-01 FncErr=1.00D-07 GrdErr=1.00D-07
 Number of steps in this run=  20 maximum allowed number of steps= 100.
 GradGradGradGradGradGradGradGradGradGradGradGradGradGradGradGradGradGrad

                          Input orientation:                          
 ---------------------------------------------------------------------
 Center     Atomic      Atomic             Coordinates (Angstroms)
 Number     Number       Type             X           Y           Z
 ---------------------------------------------------------------------
      1         16           0        2.049690   -0.403727    0.000000
      2          1           0        3.359690   -0.403727    0.000000
      3          1           0        1.612403    0.831134    0.000000
 ---------------------------------------------------------------------
                    Distance matrix (angstroms):
                    1          2          3
     1  S    0.000000
     2  H    1.310000   0.000000
     3  H    1.310000   2.139601   0.000000
 Stoichiometry    H2S
 Framework group  C2V[C2(S),SGV(H2)]
 Deg. of freedom     2
 Full point group                 C2V     NOp   4
 Largest Abelian subgroup         C2V     NOp   4
 Largest concise Abelian subgroup C2      NOp   2
                         Standard orientation:                         
 ---------------------------------------------------------------------
 Center     Atomic      Atomic             Coordinates (Angstroms)
 Number     Number       Type             X           Y           Z
 ---------------------------------------------------------------------
      1         16           0        0.000000    0.000000    0.084007
      2          1           0        0.000000    1.069800   -0.672054
      3          1           0        0.000000   -1.069800   -0.672054
 ---------------------------------------------------------------------
 Rotational constants (GHZ):    466.2733406    219.0768627    149.0474507
 Standard basis: 3-21G (6D, 7F)
 There are     9 symmetry adapted basis functions of A1  symmetry.
 There are     0 symmetry adapted basis functions of A2  symmetry.
 There are     3 symmetry adapted basis functions of B1  symmetry.
 There are     5 symmetry adapted basis functions of B2  symmetry.
 Integral buffers will be    262144 words long.
 Raffenetti 1 integral format.
 Two-electron integral symmetry is turned on.
    17 basis functions,    33 primitive gaussians,    17 cartesian basis functions
     9 alpha electrons        9 beta electrons
       nuclear repulsion energy        13.1737913625 Hartrees.
 NAtoms=    3 NActive=    3 NUniq=    2 SFac= 1.69D+00 NAtFMM=   80 NAOKFM=F Big=F
 One-electron integrals computed using PRISM.
 NBasis=    17 RedAO= T  NBF=     9     0     3     5
 NBsUse=    17 1.00D-06 NBFU=     9     0     3     5
 Harris functional with IExCor=  205 diagonalized for initial guess.
 ExpMin= 1.42D-01 ExpMax= 1.21D+03 ExpMxC= 1.21D+03 IAcc=1 IRadAn=         1 AccDes= 0.00D+00
 HarFok:  IExCor=  205 AccDes= 0.00D+00 IRadAn=         1 IDoV= 1
 ScaDFX=  1.000000  1.000000  1.000000  1.000000
 FoFCou: FMM=F IPFlag=           0 FMFlag=      100000 FMFlg1=           0
         NFxFlg=           0 DoJE=T BraDBF=F KetDBF=T FulRan=T
         Omega=  0.000000  0.000000  1.000000  0.000000  0.000000 ICntrl=     500 IOpCl=  0
         NMat0=    1 NMatS0=    1 NMatT0=    0 NMatD0=    1 NMtDS0=    0 NMtDT0=    0
         I1Cent=           4 NGrid=           0.
 Petite list used in FoFCou.
 Initial guess orbital symmetries:
       Occupied  (A1) (A1) (B2) (A1) (B1) (A1) (B2) (A1) (B1)
       Virtual   (A1) (B2) (B2) (A1) (A1) (B1) (A1) (B2)
 The electronic state of the initial guess is 1-A1.
 Requested convergence on RMS density matrix=1.00D-08 within 128 cycles.
 Requested convergence on MAX density matrix=1.00D-06.
 Requested convergence on             energy=1.00D-06.
 No special actions if energy rises.
 Keep R1 ints in memory in canonical form, NReq=831531.
 SCF Done:  E(RHF) =  -396.697720247     A.U. after    9 cycles
             Convg  =    0.4472D-08             -V/T =  2.0002

 **********************************************************************

            Population analysis using the SCF density.

 **********************************************************************

 Orbital symmetries:
       Occupied  (A1) (A1) (B2) (A1) (B1) (A1) (B2) (A1) (B1)
       Virtual   (A1) (B2) (A1) (B2) (A1) (B1) (A1) (B2)
 The electronic state is 1-A1.
 Alpha  occ. eigenvalues --  -91.31092  -8.91595  -6.59221  -6.58856  -6.58590
 Alpha  occ. eigenvalues --   -1.00345  -0.63051  -0.46532  -0.38995
 Alpha virt. eigenvalues --    0.19081   0.21672   0.63815   0.65550   0.70100
 Alpha virt. eigenvalues --    0.70809   1.14618   1.23190
          Condensed to atoms (all electrons):
              1          2          3
     1  S   15.638542   0.273594   0.273594
     2  H    0.273594   0.654777  -0.021237
     3  H    0.273594  -0.021237   0.654777
 Mulliken atomic charges:
              1
     1  S   -0.185730
     2  H    0.092865
     3  H    0.092865
 Sum of Mulliken atomic charges =   0.00000
 Mulliken charges with hydrogens summed into heavy atoms:
              1
     1  S    0.000000
 Sum of Mulliken charges with hydrogens summed into heavy atoms =   0.00000
 Electronic spatial extent (au):  <R**2>=             44.1674
 Charge=              0.0000 electrons
 Dipole moment (field-independent basis, Debye):
    X=              0.0000    Y=              0.0000    Z=             -1.9789  Tot=              1.9789
 Quadrupole moment (field-independent basis, Debye-Ang):
   XX=            -16.7106   YY=            -12.0320   ZZ=            -14.7886
   XY=              0.0000   XZ=              0.0000   YZ=              0.0000
 Traceless Quadrupole moment (field-independent basis, Debye-Ang):
   XX=             -2.2002   YY=              2.4784   ZZ=             -0.2782
   XY=              0.0000   XZ=              0.0000   YZ=              0.0000
 Octapole moment (field-independent basis, Debye-Ang**2):
  XXX=              0.0000  YYY=              0.0000  ZZZ=             -1.7267  XYY=              0.0000
  XXY=              0.0000  XXZ=             -0.7289  XZZ=              0.0000  YZZ=              0.0000
  YYZ=             -0.8931  XYZ=              0.0000
 Hexadecapole moment (field-independent basis, Debye-Ang**3):
 XXXX=            -22.5955 YYYY=            -23.3404 ZZZZ=            -23.7385 XXXY=              0.0000
 XXXZ=              0.0000 YYYX=              0.0000 YYYZ=              0.0000 ZZZX=              0.0000
 ZZZY=              0.0000 XXYY=             -7.9940 XXZZ=             -7.7841 YYZZ=             -7.5519
 XXYZ=              0.0000 YYXZ=              0.0000 ZZXY=              0.0000
 N-N= 1.317379136248D+01 E-N=-9.713769908850D+02  KE= 3.965994911238D+02
 Symmetry A1   KE= 3.210940146874D+02
 Symmetry A2   KE= 0.000000000000D+00
 Symmetry B1   KE= 3.817503426013D+01
 Symmetry B2   KE= 3.733044217633D+01
 Calling FoFJK, ICntrl=      2127 FMM=F ISym2X=1 I1Cent= 0 IOpClX= 0 NMat=1 NMatS=1 NMatT=0.
 ***** Axes restored to original set *****
 -------------------------------------------------------------------
 Center     Atomic                   Forces (Hartrees/Bohr)
 Number     Number              X              Y              Z
 -------------------------------------------------------------------
      1       16          -0.030190273   -0.042718248    0.000000000
      2        1           0.019368563    0.018338965    0.000000000
      3        1           0.010821710    0.024379283    0.000000000
 -------------------------------------------------------------------
 Cartesian Forces:  Max     0.042718248 RMS     0.021497336

 GradGradGradGradGradGradGradGradGradGradGradGradGradGradGradGradGradGrad
 Berny optimization.
 Internal  Forces:  Max     0.045398864 RMS     0.030612303
 Search for a local minimum.
 Step number   1 out of a maximum of   20
 All quantities printed in internal units (Hartrees-Bohrs-Radians)
 Mixed Optimization -- RFO/linear search
 Second derivative matrix not updated -- first step.
 The second derivative matrix:
                          R1        R2        A1
           R1           0.28975
           R2           0.00000   0.28975
           A1           0.00000   0.00000   0.16000
     Eigenvalues ---    0.16000   0.28975   0.28975
 RFO step:  Lambda=-1.42928923D-02 EMin= 1.60000000D-01
 Linear search not attempted -- first point.
 Iteration  1 RMS(Cart)=  0.13286949 RMS(Int)=  0.04073286
 Iteration  2 RMS(Cart)=  0.06037600 RMS(Int)=  0.00124950
 Iteration  3 RMS(Cart)=  0.00094256 RMS(Int)=  0.00000009
 Iteration  4 RMS(Cart)=  0.00000014 RMS(Int)=  0.00000000
 ClnCor:  largest displacement from symmetrization is 1.25D-14 for atom     3.
 Variable       Old X    -DE/DX   Delta X   Delta X   Delta X     New X
                                 (Linear)    (Quad)   (Total)
    R1        2.47554   0.01937   0.00000   0.06370   0.06370   2.53924
    R2        2.47554   0.01937   0.00000   0.06370   0.06370   2.53924
    A1        1.91114  -0.04540   0.00000  -0.26047  -0.26047   1.65066
         Item               Value     Threshold  Converged?
 Maximum Force            0.045399     0.000450     NO 
 RMS     Force            0.030612     0.000300     NO 
 Maximum Displacement     0.183780     0.001800     NO 
 RMS     Displacement     0.188041     0.001200     NO 
 Predicted change in Energy=-7.689313D-03
 GradGradGradGradGradGradGradGradGradGradGradGradGradGradGradGradGradGrad

                          Input orientation:                          
 ---------------------------------------------------------------------
 Center     Atomic      Atomic             Coordinates (Angstroms)
 Number     Number       Type             X           Y           Z
 ---------------------------------------------------------------------
      1         16           0        1.989898   -0.488329    0.000000
      2          1           0        3.322228   -0.313822    0.000000
      3          1           0        1.709655    0.825832    0.000000
 ---------------------------------------------------------------------
                    Distance matrix (angstroms):
                    1          2          3
     1  S    0.000000
     2  H    1.343710   0.000000
     3  H    1.343710   1.974641   0.000000
 Stoichiometry    H2S
 Framework group  C2V[C2(S),SGV(H2)]
 Deg. of freedom     2
 Full point group                 C2V     NOp   4
 Largest Abelian subgroup         C2V     NOp   4
 Largest concise Abelian subgroup C2      NOp   2
                         Standard orientation:                         
 ---------------------------------------------------------------------
 Center     Atomic      Atomic             Coordinates (Angstroms)
 Number     Number       Type             X           Y           Z
 ---------------------------------------------------------------------
      1         16           0        0.000000    0.000000    0.101273
      2          1           0        0.000000    0.987320   -0.810184
      3          1           0        0.000000   -0.987320   -0.810184
 ---------------------------------------------------------------------
 Rotational constants (GHZ):    320.8341300    257.2088251    142.7599262
 Standard basis: 3-21G (6D, 7F)
 There are     9 symmetry adapted basis functions of A1  symmetry.
 There are     0 symmetry adapted basis functions of A2  symmetry.
 There are     3 symmetry adapted basis functions of B1  symmetry.
 There are     5 symmetry adapted basis functions of B2  symmetry.
 Integral buffers will be    262144 words long.
 Raffenetti 1 integral format.
 Two-electron integral symmetry is turned on.
    17 basis functions,    33 primitive gaussians,    17 cartesian basis functions
     9 alpha electrons        9 beta electrons
       nuclear repulsion energy        12.8701646284 Hartrees.
 NAtoms=    3 NActive=    3 NUniq=    2 SFac= 1.69D+00 NAtFMM=   80 NAOKFM=F Big=F
 One-electron integrals computed using PRISM.
 NBasis=    17 RedAO= T  NBF=     9     0     3     5
 NBsUse=    17 1.00D-06 NBFU=     9     0     3     5
 Initial guess read from the read-write file.
 B after Tr=     0.000000    0.000000    0.000000
         Rot=    1.000000    0.000000    0.000000    0.000000 Ang=   0.00 deg.
 Initial guess orbital symmetries:
       Occupied  (A1) (A1) (B2) (A1) (B1) (A1) (B2) (A1) (B1)
       Virtual   (A1) (B2) (A1) (B2) (A1) (B1) (A1) (B2)
 Harris functional with IExCor=  205 diagonalized for initial guess.
 ExpMin= 1.42D-01 ExpMax= 1.21D+03 ExpMxC= 1.21D+03 IAcc=1 IRadAn=         1 AccDes= 0.00D+00
 HarFok:  IExCor=  205 AccDes= 0.00D+00 IRadAn=         1 IDoV= 1
 ScaDFX=  1.000000  1.000000  1.000000  1.000000
 FoFCou: FMM=F IPFlag=           0 FMFlag=      100000 FMFlg1=           0
         NFxFlg=           0 DoJE=T BraDBF=F KetDBF=T FulRan=T
         Omega=  0.000000  0.000000  1.000000  0.000000  0.000000 ICntrl=     500 IOpCl=  0
         NMat0=    1 NMatS0=    1 NMatT0=    0 NMatD0=    1 NMtDS0=    0 NMtDT0=    0
         I1Cent=           4 NGrid=           0.
 Petite list used in FoFCou.
 Requested convergence on RMS density matrix=1.00D-08 within 128 cycles.
 Requested convergence on MAX density matrix=1.00D-06.
 Requested convergence on             energy=1.00D-06.
 No special actions if energy rises.
 Keep R1 ints in memory in canonical form, NReq=831531.
 SCF Done:  E(RHF) =  -396.704564113     A.U. after   10 cycles
             Convg  =    0.2814D-08             -V/T =  2.0005
 Calling FoFJK, ICntrl=      2127 FMM=F ISym2X=1 I1Cent= 0 IOpClX= 0 NMat=1 NMatS=1 NMatT=0.
 ***** Axes restored to original set *****
 -------------------------------------------------------------------
 Center     Atomic                   Forces (Hartrees/Bohr)
 Number     Number              X              Y              Z
 -------------------------------------------------------------------
      1       16          -0.001256984   -0.001778591    0.000000000
      2        1           0.003972843   -0.001474258    0.000000000
      3        1          -0.002715859    0.003252849    0.000000000
 -------------------------------------------------------------------
 Cartesian Forces:  Max     0.003972843 RMS     0.002125434

 GradGradGradGradGradGradGradGradGradGradGradGradGradGradGradGradGradGrad
 Berny optimization.
 Using GEDIIS/GDIIS optimizer.
 Internal  Forces:  Max     0.005021921 RMS     0.004215477
 Search for a local minimum.
 Step number   2 out of a maximum of   20
 All quantities printed in internal units (Hartrees-Bohrs-Radians)
 Mixed Optimization -- RFO/linear search
 Update second derivatives using D2CorX and points    1    2
 DE= -6.84D-03 DEPred=-7.69D-03 R= 8.90D-01
 SS=  1.41D+00  RLast= 2.76D-01 DXNew= 5.0454D-01 8.2684D-01
 Trust test= 8.90D-01 RLast= 2.76D-01 DXMaxT set to 5.05D-01
 The second derivative matrix:
                          R1        R2        A1
           R1           0.28009
           R2          -0.00966   0.28009
           A1           0.00617   0.00617   0.19659
 Use linear search instead of GDIIS.
     Eigenvalues ---    0.19557   0.27145   0.28975
 RFO step:  Lambda=-1.77502321D-04 EMin= 1.95573046D-01
 Quartic linear search produced a step of -0.05267.
 Iteration  1 RMS(Cart)=  0.02572193 RMS(Int)=  0.00016264
 Iteration  2 RMS(Cart)=  0.00013101 RMS(Int)=  0.00000001
 Iteration  3 RMS(Cart)=  0.00000001 RMS(Int)=  0.00000000
 ClnCor:  largest displacement from symmetrization is 5.71D-15 for atom     3.
 Variable       Old X    -DE/DX   Delta X   Delta X   Delta X     New X
                                 (Linear)    (Quad)   (Total)
    R1        2.53924   0.00375  -0.00336   0.01676   0.01340   2.55265
    R2        2.53924   0.00375  -0.00336   0.01676   0.01340   2.55265
    A1        1.65066   0.00502   0.01372   0.01038   0.02410   1.67476
         Item               Value     Threshold  Converged?
 Maximum Force            0.005022     0.000450     NO 
 RMS     Force            0.004215     0.000300     NO 
 Maximum Displacement     0.027595     0.001800     NO 
 RMS     Displacement     0.025781     0.001200     NO 
 Predicted change in Energy=-1.118359D-04
 GradGradGradGradGradGradGradGradGradGradGradGradGradGradGradGradGradGrad

                          Input orientation:                          
 ---------------------------------------------------------------------
 Center     Atomic      Atomic             Coordinates (Angstroms)
 Number     Number       Type             X           Y           Z
 ---------------------------------------------------------------------
      1         16           0        1.992675   -0.484400    0.000000
      2          1           0        3.334054   -0.325126    0.000000
      3          1           0        1.695052    0.833206    0.000000
 ---------------------------------------------------------------------
                    Distance matrix (angstroms):
                    1          2          3
     1  S    0.000000
     2  H    1.350802   0.000000
     3  H    1.350802   2.007003   0.000000
 Stoichiometry    H2S
 Framework group  C2V[C2(S),SGV(H2)]
 Deg. of freedom     2
 Full point group                 C2V     NOp   4
 Largest Abelian subgroup         C2V     NOp   4
 Largest concise Abelian subgroup C2      NOp   2
                         Standard orientation:                         
 ---------------------------------------------------------------------
 Center     Atomic      Atomic             Coordinates (Angstroms)
 Number     Number       Type             X           Y           Z
 ---------------------------------------------------------------------
      1         16           0        0.000000    0.000000    0.100471
      2          1           0        0.000000    1.003502   -0.803770
      3          1           0        0.000000   -1.003502   -0.803770
 ---------------------------------------------------------------------
 Rotational constants (GHZ):    325.9754983    248.9808037    141.1614087
 Standard basis: 3-21G (6D, 7F)
 There are     9 symmetry adapted basis functions of A1  symmetry.
 There are     0 symmetry adapted basis functions of A2  symmetry.
 There are     3 symmetry adapted basis functions of B1  symmetry.
 There are     5 symmetry adapted basis functions of B2  symmetry.
 Integral buffers will be    262144 words long.
 Raffenetti 1 integral format.
 Two-electron integral symmetry is turned on.
    17 basis functions,    33 primitive gaussians,    17 cartesian basis functions
     9 alpha electrons        9 beta electrons
       nuclear repulsion energy        12.7996733013 Hartrees.
 NAtoms=    3 NActive=    3 NUniq=    2 SFac= 1.69D+00 NAtFMM=   80 NAOKFM=F Big=F
 One-electron integrals computed using PRISM.
 NBasis=    17 RedAO= T  NBF=     9     0     3     5
 NBsUse=    17 1.00D-06 NBFU=     9     0     3     5
 Initial guess read from the read-write file.
 B after Tr=     0.000000    0.000000    0.000000
         Rot=    1.000000    0.000000    0.000000    0.000000 Ang=   0.00 deg.
 Initial guess orbital symmetries:
       Occupied  (A1) (A1) (B2) (A1) (B1) (A1) (B2) (A1) (B1)
       Virtual   (B2) (A1) (B2) (A1) (A1) (B1) (A1) (B2)
 Harris functional with IExCor=  205 diagonalized for initial guess.
 ExpMin= 1.42D-01 ExpMax= 1.21D+03 ExpMxC= 1.21D+03 IAcc=1 IRadAn=         1 AccDes= 0.00D+00
 HarFok:  IExCor=  205 AccDes= 0.00D+00 IRadAn=         1 IDoV= 1
 ScaDFX=  1.000000  1.000000  1.000000  1.000000
 FoFCou: FMM=F IPFlag=           0 FMFlag=      100000 FMFlg1=           0
         NFxFlg=           0 DoJE=T BraDBF=F KetDBF=T FulRan=T
         Omega=  0.000000  0.000000  1.000000  0.000000  0.000000 ICntrl=     500 IOpCl=  0
         NMat0=    1 NMatS0=    1 NMatT0=    0 NMatD0=    1 NMtDS0=    0 NMtDT0=    0
         I1Cent=           4 NGrid=           0.
 Petite list used in FoFCou.
 Requested convergence on RMS density matrix=1.00D-08 within 128 cycles.
 Requested convergence on MAX density matrix=1.00D-06.
 Requested convergence on             energy=1.00D-06.
 No special actions if energy rises.
 Keep R1 ints in memory in canonical form, NReq=831531.
 SCF Done:  E(RHF) =  -396.704665362     A.U. after    8 cycles
             Convg  =    0.2554D-08             -V/T =  2.0005
 Calling FoFJK, ICntrl=      2127 FMM=F ISym2X=1 I1Cent= 0 IOpClX= 0 NMat=1 NMatS=1 NMatT=0.
 ***** Axes restored to original set *****
 -------------------------------------------------------------------
 Center     Atomic                   Forces (Hartrees/Bohr)
 Number     Number              X              Y              Z
 -------------------------------------------------------------------
      1       16          -0.000058151   -0.000082282    0.000000000
      2        1          -0.000187902    0.000194486    0.000000000
      3        1           0.000246053   -0.000112203    0.000000000
 -------------------------------------------------------------------
 Cartesian Forces:  Max     0.000246053 RMS     0.000131831

 GradGradGradGradGradGradGradGradGradGradGradGradGradGradGradGradGradGrad
 Berny optimization.
 Using GEDIIS/GDIIS optimizer.
 Internal  Forces:  Max     0.000549545 RMS     0.000344272
 Search for a local minimum.
 Step number   3 out of a maximum of   20
 All quantities printed in internal units (Hartrees-Bohrs-Radians)
 Mixed Optimization -- En-DIIS/RFO-DIIS
 Update second derivatives using D2CorX and points    1    2    3
 DE= -1.01D-04 DEPred=-1.12D-04 R= 9.05D-01
 SS=  1.41D+00  RLast= 3.07D-02 DXNew= 8.4853D-01 9.1989D-02
 Trust test= 9.05D-01 RLast= 3.07D-02 DXMaxT set to 5.05D-01
 The second derivative matrix:
                          R1        R2        A1
           R1           0.27891
           R2          -0.01085   0.27891
           A1           0.01322   0.01322   0.21646
 Use linear search instead of GDIIS.
     Eigenvalues ---    0.21040   0.27412   0.28975
 RFO step:  Lambda=-2.24265593D-07 EMin= 2.10402039D-01
 Quartic linear search produced a step of -0.07493.
 Iteration  1 RMS(Cart)=  0.00227107 RMS(Int)=  0.00000167
 Iteration  2 RMS(Cart)=  0.00000122 RMS(Int)=  0.00000000
 Iteration  3 RMS(Cart)=  0.00000000 RMS(Int)=  0.00000000
 ClnCor:  largest displacement from symmetrization is 4.97D-15 for atom     3.
 Variable       Old X    -DE/DX   Delta X   Delta X   Delta X     New X
                                 (Linear)    (Quad)   (Total)
    R1        2.55265  -0.00016  -0.00100   0.00050  -0.00050   2.55214
    R2        2.55265  -0.00016  -0.00100   0.00050  -0.00050   2.55214
    A1        1.67476  -0.00055  -0.00181  -0.00071  -0.00251   1.67225
         Item               Value     Threshold  Converged?
 Maximum Force            0.000550     0.000450     NO 
 RMS     Force            0.000344     0.000300     NO 
 Maximum Displacement     0.002451     0.001800     NO 
 RMS     Displacement     0.002272     0.001200     NO 
 Predicted change in Energy=-7.609494D-07
 GradGradGradGradGradGradGradGradGradGradGradGradGradGradGradGradGradGrad

                          Input orientation:                          
 ---------------------------------------------------------------------
 Center     Atomic      Atomic             Coordinates (Angstroms)
 Number     Number       Type             X           Y           Z
 ---------------------------------------------------------------------
      1         16           0        1.992259   -0.484989    0.000000
      2          1           0        3.333174   -0.324062    0.000000
      3          1           0        1.696349    0.832731    0.000000
 ---------------------------------------------------------------------
                    Distance matrix (angstroms):
                    1          2          3
     1  S    0.000000
     2  H    1.350537   0.000000
     3  H    1.350537   2.004337   0.000000
 Stoichiometry    H2S
 Framework group  C2V[C2(S),SGV(H2)]
 Deg. of freedom     2
 Full point group                 C2V     NOp   4
 Largest Abelian subgroup         C2V     NOp   4
 Largest concise Abelian subgroup C2      NOp   2
                         Standard orientation:                         
 ---------------------------------------------------------------------
 Center     Atomic      Atomic             Coordinates (Angstroms)
 Number     Number       Type             X           Y           Z
 ---------------------------------------------------------------------
      1         16           0        0.000000    0.000000    0.100591
      2          1           0        0.000000    1.002168   -0.804731
      3          1           0        0.000000   -1.002168   -0.804731
 ---------------------------------------------------------------------
 Rotational constants (GHZ):    325.1972990    249.6437197    141.2276799
 Standard basis: 3-21G (6D, 7F)
 There are     9 symmetry adapted basis functions of A1  symmetry.
 There are     0 symmetry adapted basis functions of A2  symmetry.
 There are     3 symmetry adapted basis functions of B1  symmetry.
 There are     5 symmetry adapted basis functions of B2  symmetry.
 Integral buffers will be    262144 words long.
 Raffenetti 1 integral format.
 Two-electron integral symmetry is turned on.
    17 basis functions,    33 primitive gaussians,    17 cartesian basis functions
     9 alpha electrons        9 beta electrons
       nuclear repulsion energy        12.8024892867 Hartrees.
 NAtoms=    3 NActive=    3 NUniq=    2 SFac= 1.69D+00 NAtFMM=   80 NAOKFM=F Big=F
 One-electron integrals computed using PRISM.
 NBasis=    17 RedAO= T  NBF=     9     0     3     5
 NBsUse=    17 1.00D-06 NBFU=     9     0     3     5
 Initial guess read from the read-write file.
 B after Tr=     0.000000    0.000000    0.000000
         Rot=    1.000000    0.000000    0.000000    0.000000 Ang=   0.00 deg.
 Initial guess orbital symmetries:
       Occupied  (A1) (A1) (B2) (A1) (B1) (A1) (B2) (A1) (B1)
       Virtual   (B2) (A1) (B2) (A1) (A1) (B1) (A1) (B2)
 Requested convergence on RMS density matrix=1.00D-08 within 128 cycles.
 Requested convergence on MAX density matrix=1.00D-06.
 Requested convergence on             energy=1.00D-06.
 No special actions if energy rises.
 Keep R1 ints in memory in canonical form, NReq=831531.
 SCF Done:  E(RHF) =  -396.704666136     A.U. after    7 cycles
             Convg  =    0.1305D-08             -V/T =  2.0005
 Calling FoFJK, ICntrl=      2127 FMM=F ISym2X=1 I1Cent= 0 IOpClX= 0 NMat=1 NMatS=1 NMatT=0.
 ***** Axes restored to original set *****
 -------------------------------------------------------------------
 Center     Atomic                   Forces (Hartrees/Bohr)
 Number     Number              X              Y              Z
 -------------------------------------------------------------------
      1       16          -0.000004284   -0.000006061    0.000000000
      2        1           0.000003971    0.000001738    0.000000000
      3        1           0.000000313    0.000004323    0.000000000
 -------------------------------------------------------------------
 Cartesian Forces:  Max     0.000006061 RMS     0.000003209

 GradGradGradGradGradGradGradGradGradGradGradGradGradGradGradGradGradGrad
 Berny optimization.
 Using GEDIIS/GDIIS optimizer.
 Internal  Forces:  Max     0.000004150 RMS     0.000003858
 Search for a local minimum.
 Step number   4 out of a maximum of   20
 All quantities printed in internal units (Hartrees-Bohrs-Radians)
 Mixed Optimization -- En-DIIS/RFO-DIIS
 Swaping is turned off.
 Update second derivatives using D2CorX and points    1    2    3    4
 DE= -7.74D-07 DEPred=-7.61D-07 R= 1.02D+00
 Trust test= 1.02D+00 RLast= 2.61D-03 DXMaxT set to 5.05D-01
 The second derivative matrix:
                          R1        R2        A1
           R1           0.27914
           R2          -0.01062   0.27914
           A1           0.01316   0.01316   0.21230
     Eigenvalues ---    0.20670   0.27412   0.28975
 En-DIIS/RFO-DIIS IScMMF=        0 using points:     4    3
 RFO step:  Lambda= 0.00000000D+00.
 DIIS coeffs:      1.00251     -0.00251
 Iteration  1 RMS(Cart)=  0.00001294 RMS(Int)=  0.00000000
 Iteration  2 RMS(Cart)=  0.00000000 RMS(Int)=  0.00000000
 ClnCor:  largest displacement from symmetrization is 1.46D-14 for atom     3.
 Variable       Old X    -DE/DX   Delta X   Delta X   Delta X     New X
                                  (DIIS)     (GDIIS)  (Total)
    R1        2.55214   0.00000   0.00000   0.00002   0.00002   2.55216
    R2        2.55214   0.00000   0.00000   0.00002   0.00002   2.55216
    A1        1.67225   0.00000  -0.00001  -0.00001  -0.00002   1.67224
         Item               Value     Threshold  Converged?
 Maximum Force            0.000004     0.000450     YES
 RMS     Force            0.000004     0.000300     YES
 Maximum Displacement     0.000015     0.001800     YES
 RMS     Displacement     0.000013     0.001200     YES
 Predicted change in Energy=-9.489583D-11
 Optimization completed.
    -- Stationary point found.
                           ----------------------------
                           !   Optimized Parameters   !
                           ! (Angstroms and Degrees)  !
 --------------------------                            --------------------------
 ! Name  Definition              Value          Derivative Info.                !
 --------------------------------------------------------------------------------
 ! R1    R(1,2)                  1.3505         -DE/DX =    0.0                 !
 ! R2    R(1,3)                  1.3505         -DE/DX =    0.0                 !
 ! A1    A(2,1,3)               95.813          -DE/DX =    0.0                 !
 --------------------------------------------------------------------------------
 GradGradGradGradGradGradGradGradGradGradGradGradGradGradGradGradGradGrad

                          Input orientation:                          
 ---------------------------------------------------------------------
 Center     Atomic      Atomic             Coordinates (Angstroms)
 Number     Number       Type             X           Y           Z
 ---------------------------------------------------------------------
      1         16           0        1.992259   -0.484989    0.000000
      2          1           0        3.333174   -0.324062    0.000000
      3          1           0        1.696349    0.832731    0.000000
 ---------------------------------------------------------------------
                    Distance matrix (angstroms):
                    1          2          3
     1  S    0.000000
     2  H    1.350537   0.000000
     3  H    1.350537   2.004337   0.000000
 Stoichiometry    H2S
 Framework group  C2V[C2(S),SGV(H2)]
 Deg. of freedom     2
 Full point group                 C2V     NOp   4
 Largest Abelian subgroup         C2V     NOp   4
 Largest concise Abelian subgroup C2      NOp   2
                         Standard orientation:                         
 ---------------------------------------------------------------------
 Center     Atomic      Atomic             Coordinates (Angstroms)
 Number     Number       Type             X           Y           Z
 ---------------------------------------------------------------------
      1         16           0        0.000000    0.000000    0.100591
      2          1           0        0.000000    1.002168   -0.804731
      3          1           0        0.000000   -1.002168   -0.804731
 ---------------------------------------------------------------------
 Rotational constants (GHZ):    325.1972990    249.6437197    141.2276799

 **********************************************************************

            Population analysis using the SCF density.

 **********************************************************************

 Orbital symmetries:
       Occupied  (A1) (A1) (B2) (A1) (B1) (A1) (B2) (A1) (B1)
       Virtual   (B2) (A1) (B2) (A1) (A1) (B1) (A1) (B2)
 The electronic state is 1-A1.
 Alpha  occ. eigenvalues --  -91.32067  -8.92311  -6.59832  -6.59615  -6.59286
 Alpha  occ. eigenvalues --   -0.99743  -0.59483  -0.48698  -0.39226
 Alpha virt. eigenvalues --    0.18227   0.20098   0.66942   0.67923   0.69765
 Alpha virt. eigenvalues --    0.70596   1.14567   1.20122
          Condensed to atoms (all electrons):
              1          2          3
     1  S   15.633890   0.268202   0.268202
     2  H    0.268202   0.674119  -0.027467
     3  H    0.268202  -0.027467   0.674119
 Mulliken atomic charges:
              1
     1  S   -0.170293
     2  H    0.085146
     3  H    0.085146
 Sum of Mulliken atomic charges =   0.00000
 Mulliken charges with hydrogens summed into heavy atoms:
              1
     1  S    0.000000
 Sum of Mulliken charges with hydrogens summed into heavy atoms =   0.00000
 Electronic spatial extent (au):  <R**2>=             44.9970
 Charge=              0.0000 electrons
 Dipole moment (field-independent basis, Debye):
    X=              0.0000    Y=              0.0000    Z=             -1.8300  Tot=              1.8300
 Quadrupole moment (field-independent basis, Debye-Ang):
   XX=            -16.8023   YY=            -12.6821   ZZ=            -14.3913
   XY=              0.0000   XZ=              0.0000   YZ=              0.0000
 Traceless Quadrupole moment (field-independent basis, Debye-Ang):
   XX=             -2.1771   YY=              1.9431   ZZ=              0.2340
   XY=              0.0000   XZ=              0.0000   YZ=              0.0000
 Octapole moment (field-independent basis, Debye-Ang**2):
  XXX=              0.0000  YYY=              0.0000  ZZZ=             -1.3871  XYY=              0.0000
  XXY=              0.0000  XXZ=             -0.5983  XZZ=              0.0000  YZZ=              0.0000
  YYZ=             -0.6517  XYZ=              0.0000
 Hexadecapole moment (field-independent basis, Debye-Ang**3):
 XXXX=            -22.6987 YYYY=            -24.1116 ZZZZ=            -25.1829 XXXY=              0.0000
 XXXZ=              0.0000 YYYX=              0.0000 YYYZ=              0.0000 ZZZX=              0.0000
 ZZZY=              0.0000 XXYY=             -8.0088 XXZZ=             -8.1135 YYZZ=             -7.7054
 XXYZ=              0.0000 YYXZ=              0.0000 ZZXY=              0.0000
 N-N= 1.280248928674D+01 E-N=-9.705000593243D+02  KE= 3.964909535646D+02
 Symmetry A1   KE= 3.210358921656D+02
 Symmetry A2   KE= 0.000000000000D+00
 Symmetry B1   KE= 3.818958718710D+01
 Symmetry B2   KE= 3.726547421183D+01
 1|1|UNPC-DESKTOP-K2VF0AK|FOpt|RHF|3-21G|H2S1|MELIH|28-Oct-2024|0||# op
 t freq hf/3-21g geom=connectivity||Title Card Required||0,1|S,1.992258
 9096,-0.4849891067,0.|H,3.3331736639,-0.3240619925,0.|H,1.6963489327,0
 .8327313491,0.||Version=IA32W-G09RevA.02|State=1-A1|HF=-396.7046661|RM
 SD=1.305e-009|RMSF=3.209e-006|Dipole=0.4155366,0.5879707,0.|Quadrupole
 =1.0213891,0.5972238,-1.6186129,-0.5989029,0.,0.|PG=C02V [C2(S1),SGV(H
 2)]||@


 A true friend is someone who is there for
 you when he'd rather be anywhere else.
                               -- Len Wein
 Job cpu time:  0 days  0 hours  0 minutes  8.0 seconds.
 File lengths (MBytes):  RWF=      5 Int=      0 D2E=      0 Chk=      1 Scr=      1
 Normal termination of Gaussian 09 at Mon Oct 28 15:31:45 2024.
 Link1:  Proceeding to internal job step number  2.
 --------------------------------------------------------------
 #N Geom=AllCheck Guess=TCheck SCRF=Check GenChk RHF/3-21G Freq
 --------------------------------------------------------------
 1/10=4,29=7,30=1,38=1,40=1/1,3;
 2/12=2,40=1/2;
 3/5=5,11=1,14=-4,16=1,25=1,30=1,70=2,71=2,116=1/1,2,3;
 4/5=101/1;
 5/5=2,98=1/2;
 8/6=4,10=90,11=11/1;
 10/13=10,15=4/2;
 11/6=3,8=1,9=11,15=111,16=1/1,2,10;
 10/6=1/2;
 6/7=2,8=2,9=2,10=2,18=1,28=1/1;
 7/8=1,10=1,25=1/1,2,3,16;
 1/10=4,30=1/3;
 99//99;
 -------------------
 Title Card Required
 -------------------
 Redundant internal coordinates taken from checkpoint file:
 C:\Users\melih\Desktop\Gaussian\H2S\OptFreqH2S.chk
 Charge =  0 Multiplicity = 1
 S,0,1.9922589096,-0.4849891067,0.
 H,0,3.3331736639,-0.3240619925,0.
 H,0,1.6963489327,0.8327313491,0.
 Recover connectivity data from disk.

 GradGradGradGradGradGradGradGradGradGradGradGradGradGradGradGradGradGrad
 Berny optimization.
 Initialization pass.
                           ----------------------------
                           !    Initial Parameters    !
                           ! (Angstroms and Degrees)  !
 --------------------------                            --------------------------
 ! Name  Definition              Value          Derivative Info.                !
 --------------------------------------------------------------------------------
 ! R1    R(1,2)                  1.3505         calculate D2E/DX2 analytically  !
 ! R2    R(1,3)                  1.3505         calculate D2E/DX2 analytically  !
 ! A1    A(2,1,3)               95.813          calculate D2E/DX2 analytically  !
 --------------------------------------------------------------------------------
 Trust Radius=3.00D-01 FncErr=1.00D-07 GrdErr=1.00D-07
 Number of steps in this run=   2 maximum allowed number of steps=   2.
 GradGradGradGradGradGradGradGradGradGradGradGradGradGradGradGradGradGrad

                          Input orientation:                          
 ---------------------------------------------------------------------
 Center     Atomic      Atomic             Coordinates (Angstroms)
 Number     Number       Type             X           Y           Z
 ---------------------------------------------------------------------
      1         16           0        1.992259   -0.484989    0.000000
      2          1           0        3.333174   -0.324062    0.000000
      3          1           0        1.696349    0.832731    0.000000
 ---------------------------------------------------------------------
                    Distance matrix (angstroms):
                    1          2          3
     1  S    0.000000
     2  H    1.350537   0.000000
     3  H    1.350537   2.004337   0.000000
 Stoichiometry    H2S
 Framework group  C2V[C2(S),SGV(H2)]
 Deg. of freedom     2
 Full point group                 C2V     NOp   4
 Largest Abelian subgroup         C2V     NOp   4
 Largest concise Abelian subgroup C2      NOp   2
                         Standard orientation:                         
 ---------------------------------------------------------------------
 Center     Atomic      Atomic             Coordinates (Angstroms)
 Number     Number       Type             X           Y           Z
 ---------------------------------------------------------------------
      1         16           0        0.000000    0.000000    0.100591
      2          1           0        0.000000    1.002168   -0.804731
      3          1           0        0.000000   -1.002168   -0.804731
 ---------------------------------------------------------------------
 Rotational constants (GHZ):    325.1972990    249.6437197    141.2276799
 Standard basis: 3-21G (6D, 7F)
 There are     9 symmetry adapted basis functions of A1  symmetry.
 There are     0 symmetry adapted basis functions of A2  symmetry.
 There are     3 symmetry adapted basis functions of B1  symmetry.
 There are     5 symmetry adapted basis functions of B2  symmetry.
 Integral buffers will be    262144 words long.
 Raffenetti 1 integral format.
 Two-electron integral symmetry is turned on.
    17 basis functions,    33 primitive gaussians,    17 cartesian basis functions
     9 alpha electrons        9 beta electrons
       nuclear repulsion energy        12.8024892867 Hartrees.
 NAtoms=    3 NActive=    3 NUniq=    2 SFac= 1.69D+00 NAtFMM=   80 NAOKFM=F Big=F
 One-electron integrals computed using PRISM.
 NBasis=    17 RedAO= T  NBF=     9     0     3     5
 NBsUse=    17 1.00D-06 NBFU=     9     0     3     5
 Initial guess read from the checkpoint file:  C:\Users\melih\Desktop\Gaussian\H2
 S\OptFreqH2S.chk
 B after Tr=     0.000000    0.000000    0.000000
         Rot=    1.000000    0.000000    0.000000    0.000000 Ang=   0.00 deg.
 Initial guess orbital symmetries:
       Occupied  (A1) (A1) (B2) (A1) (B1) (A1) (B2) (A1) (B1)
       Virtual   (B2) (A1) (B2) (A1) (A1) (B1) (A1) (B2)
 Requested convergence on RMS density matrix=1.00D-08 within 128 cycles.
 Requested convergence on MAX density matrix=1.00D-06.
 Requested convergence on             energy=1.00D-06.
 No special actions if energy rises.
 Keep R1 ints in memory in canonical form, NReq=831531.
 SCF Done:  E(RHF) =  -396.704666136     A.U. after    1 cycles
             Convg  =    0.2172D-09             -V/T =  2.0005
 Range of M.O.s used for correlation:     1    17
 NBasis=    17 NAE=     9 NBE=     9 NFC=     0 NFV=     0
 NROrb=     17 NOA=     9 NOB=     9 NVA=     8 NVB=     8
          Differentiating once with respect to electric field.
                with respect to dipole field.
          Electric field/nuclear overlap derivatives assumed to be zero.
          Keep R1 ints in memory in canonical form, NReq=812055.
          There are     3 degrees of freedom in the 1st order CPHF.  IDoFFX=0.
      3 vectors produced by pass  0 Test12= 2.40D-15 3.33D-08 XBig12= 5.19D+00 1.72D+00.
 AX will form     3 AO Fock derivatives at one time.
      3 vectors produced by pass  1 Test12= 2.40D-15 3.33D-08 XBig12= 1.09D-01 2.04D-01.
      3 vectors produced by pass  2 Test12= 2.40D-15 3.33D-08 XBig12= 3.41D-03 3.58D-02.
      3 vectors produced by pass  3 Test12= 2.40D-15 3.33D-08 XBig12= 3.96D-05 2.57D-03.
      3 vectors produced by pass  4 Test12= 2.40D-15 3.33D-08 XBig12= 3.00D-07 2.97D-04.
      3 vectors produced by pass  5 Test12= 2.40D-15 3.33D-08 XBig12= 2.82D-09 2.11D-05.
      3 vectors produced by pass  6 Test12= 2.40D-15 3.33D-08 XBig12= 2.18D-11 2.24D-06.
      1 vectors produced by pass  7 Test12= 2.40D-15 3.33D-08 XBig12= 1.56D-13 1.70D-07.
 Inverted reduced A of dimension    22 with in-core refinement.
 End of Minotr Frequency-dependent properties file   721 does not exist.
 End of Minotr Frequency-dependent properties file   722 does not exist.
 Symmetrizing basis deriv contribution to polar:
 IMax=3 JMax=2 DiffMx= 0.00D+00
 G2DrvN: will do     4 centers at a time, making    1 passes doing MaxLOS=1.
 Calling FoFCou, ICntrl=  3107 FMM=F I1Cent=   0 AccDes= 0.00D+00.
 FoFDir/FoFCou used for L=0 through L=1.
 End of G2Drv Frequency-dependent properties file   721 does not exist.
 End of G2Drv Frequency-dependent properties file   722 does not exist.
          IDoAtm=111
          Differentiating once with respect to electric field.
                with respect to dipole field.
          Differentiating once with respect to nuclear coordinates.
          Keep R1 ints in memory in canonical form, NReq=812090.
          There are     9 degrees of freedom in the 1st order CPHF.  IDoFFX=4.
 Will reuse    3 saved solutions.
      6 vectors produced by pass  0 Test12= 8.00D-16 1.11D-08 XBig12= 2.55D-02 9.09D-02.
 AX will form     6 AO Fock derivatives at one time.
      6 vectors produced by pass  1 Test12= 8.00D-16 1.11D-08 XBig12= 5.86D-04 1.95D-02.
      6 vectors produced by pass  2 Test12= 8.00D-16 1.11D-08 XBig12= 2.41D-05 2.79D-03.
      6 vectors produced by pass  3 Test12= 8.00D-16 1.11D-08 XBig12= 2.78D-07 2.66D-04.
      6 vectors produced by pass  4 Test12= 8.00D-16 1.11D-08 XBig12= 1.66D-09 1.88D-05.
      5 vectors produced by pass  5 Test12= 8.00D-16 1.11D-08 XBig12= 5.67D-12 1.19D-06.
      1 vectors produced by pass  6 Test12= 8.00D-16 1.11D-08 XBig12= 2.10D-14 9.04D-08.
 Inverted reduced A of dimension    36 with in-core refinement.
 Isotropic polarizability for W=    0.000000       12.99 Bohr**3.
 End of Minotr Frequency-dependent properties file   721 does not exist.
 End of Minotr Frequency-dependent properties file   722 does not exist.

 **********************************************************************

            Population analysis using the SCF density.

 **********************************************************************

 Orbital symmetries:
       Occupied  (A1) (A1) (B2) (A1) (B1) (A1) (B2) (A1) (B1)
       Virtual   (B2) (A1) (B2) (A1) (A1) (B1) (A1) (B2)
 The electronic state is 1-A1.
 Alpha  occ. eigenvalues --  -91.32067  -8.92311  -6.59832  -6.59615  -6.59286
 Alpha  occ. eigenvalues --   -0.99743  -0.59483  -0.48698  -0.39226
 Alpha virt. eigenvalues --    0.18227   0.20098   0.66942   0.67923   0.69765
 Alpha virt. eigenvalues --    0.70596   1.14567   1.20122
          Condensed to atoms (all electrons):
              1          2          3
     1  S   15.633890   0.268202   0.268202
     2  H    0.268202   0.674119  -0.027467
     3  H    0.268202  -0.027467   0.674119
 Mulliken atomic charges:
              1
     1  S   -0.170293
     2  H    0.085146
     3  H    0.085146
 Sum of Mulliken atomic charges =   0.00000
 Mulliken charges with hydrogens summed into heavy atoms:
              1
     1  S    0.000000
 Sum of Mulliken charges with hydrogens summed into heavy atoms =   0.00000
 APT atomic charges:
              1
     1  S   -0.084162
     2  H    0.042081
     3  H    0.042081
 Sum of APT charges=   0.00000
 APT Atomic charges with hydrogens summed into heavy atoms:
              1
     1  S    0.000000
     2  H    0.000000
     3  H    0.000000
 Sum of APT charges=   0.00000
 Electronic spatial extent (au):  <R**2>=             44.9970
 Charge=              0.0000 electrons
 Dipole moment (field-independent basis, Debye):
    X=              0.0000    Y=              0.0000    Z=             -1.8300  Tot=              1.8300
 Quadrupole moment (field-independent basis, Debye-Ang):
   XX=            -16.8023   YY=            -12.6821   ZZ=            -14.3913
   XY=              0.0000   XZ=              0.0000   YZ=              0.0000
 Traceless Quadrupole moment (field-independent basis, Debye-Ang):
   XX=             -2.1771   YY=              1.9431   ZZ=              0.2340
   XY=              0.0000   XZ=              0.0000   YZ=              0.0000
 Octapole moment (field-independent basis, Debye-Ang**2):
  XXX=              0.0000  YYY=              0.0000  ZZZ=             -1.3871  XYY=              0.0000
  XXY=              0.0000  XXZ=             -0.5983  XZZ=              0.0000  YZZ=              0.0000
  YYZ=             -0.6517  XYZ=              0.0000
 Hexadecapole moment (field-independent basis, Debye-Ang**3):
 XXXX=            -22.6987 YYYY=            -24.1116 ZZZZ=            -25.1829 XXXY=              0.0000
 XXXZ=              0.0000 YYYX=              0.0000 YYYZ=              0.0000 ZZZX=              0.0000
 ZZZY=              0.0000 XXYY=             -8.0088 XXZZ=             -8.1135 YYZZ=             -7.7054
 XXYZ=              0.0000 YYXZ=              0.0000 ZZXY=              0.0000
 N-N= 1.280248928674D+01 E-N=-9.705000593218D+02  KE= 3.964909535632D+02
 Symmetry A1   KE= 3.210358921604D+02
 Symmetry A2   KE= 0.000000000000D+00
 Symmetry B1   KE= 3.818958718823D+01
 Symmetry B2   KE= 3.726547421457D+01
  Exact polarizability:   5.828   0.000  18.642   0.000   0.000  14.485
 Approx polarizability:   4.387   0.000  15.087   0.000   0.000  11.511
 Calling FoFJK, ICntrl=    100127 FMM=F ISym2X=1 I1Cent= 0 IOpClX= 0 NMat=1 NMatS=1 NMatT=0.
 Full mass-weighted force constant matrix:
 Low frequencies ---   -7.7762   -6.6237   -5.5679    0.0035    0.0038    0.0039
 Low frequencies --- 1321.9821 2638.9893 2652.4668
 Diagonal vibrational polarizability:
        0.0000000       0.0623756       0.2269344
 Diagonal vibrational hyperpolarizability:
        0.0000000       0.0000000      16.8954338
 Harmonic frequencies (cm**-1), IR intensities (KM/Mole), Raman scattering
 activities (A**4/AMU), depolarization ratios for plane and unpolarized
 incident light, reduced masses (AMU), force constants (mDyne/A),
 and normal coordinates:
                     1                      2                      3
                    A1                     A1                     B2
 Frequencies --  1321.9821              2638.9893              2652.4668
 Red. masses --     1.0430                 1.0323                 1.0417
 Frc consts  --     1.0739                 4.2358                 4.3180
 IR Inten    --    11.4259                13.1960                16.3073
 Raman Activ --    72.2944               210.8319               146.7332
 Depolar (P) --     0.6758                 0.2214                 0.7500
 Depolar (U) --     0.8066                 0.3625                 0.8571
  Atom  AN      X      Y      Z        X      Y      Z        X      Y      Z
     1  16     0.00   0.00   0.03     0.00   0.00   0.03     0.00   0.03   0.00
     2   1     0.00  -0.46  -0.53     0.00   0.55  -0.45     0.00  -0.52   0.47
     3   1     0.00   0.46  -0.53     0.00  -0.55  -0.45     0.00  -0.52  -0.47

 -------------------
 - Thermochemistry -
 -------------------
 Temperature   298.150 Kelvin.  Pressure   1.00000 Atm.
 Atom     1 has atomic number 16 and mass  31.97207
 Atom     2 has atomic number  1 and mass   1.00783
 Atom     3 has atomic number  1 and mass   1.00783
 Molecular mass:    33.98772 amu.
 Principal axes and moments of inertia in atomic units:
                           1         2         3
     Eigenvalues --     5.54968   7.22927  12.77895
           X            0.00000   0.00000   1.00000
           Y            1.00000   0.00000   0.00000
           Z            0.00000   1.00000   0.00000
 This molecule is an asymmetric top.
 Rotational symmetry number  2.
 Rotational temperatures (Kelvin)     15.60699    11.98099     6.77785
 Rotational constants (GHZ):         325.19730   249.64372   141.22768
 Zero-point vibrational energy      39557.1 (Joules/Mol)
                                    9.45438 (Kcal/Mol)
 Vibrational temperatures:   1902.03  3796.91  3816.30
          (Kelvin)
 
 Zero-point correction=                           0.015067 (Hartree/Particle)
 Thermal correction to Energy=                    0.017909
 Thermal correction to Enthalpy=                  0.018854
 Thermal correction to Gibbs Free Energy=        -0.004500
 Sum of electronic and zero-point Energies=           -396.689600
 Sum of electronic and thermal Energies=              -396.686757
 Sum of electronic and thermal Enthalpies=            -396.685813
 Sum of electronic and thermal Free Energies=         -396.709166
 
                     E (Thermal)             CV                S
                      KCal/Mol        Cal/Mol-Kelvin    Cal/Mol-Kelvin
 Total                   11.238              6.101             49.152
 Electronic               0.000              0.000              0.000
 Translational            0.889              2.981             36.501
 Rotational               0.889              2.981             12.625
 Vibrational              9.461              0.139              0.025
                       Q            Log10(Q)             Ln(Q)
 Total Bot       0.117441D+03          2.069819          4.765935
 Total V=0       0.999823D+09          8.999923         20.723089
 Vib (Bot)       0.117662D-06         -6.929364        -15.955450
 Vib (V=0)       0.100170D+01          0.000740          0.001703
 Electronic      0.100000D+01          0.000000          0.000000
 Translational   0.778822D+07          6.891438         15.868123
 Rotational      0.128158D+03          2.107745          4.853262
 ***** Axes restored to original set *****
 -------------------------------------------------------------------
 Center     Atomic                   Forces (Hartrees/Bohr)
 Number     Number              X              Y              Z
 -------------------------------------------------------------------
      1       16          -0.000004284   -0.000006061    0.000000000
      2        1           0.000003971    0.000001738    0.000000000
      3        1           0.000000313    0.000004323    0.000000000
 -------------------------------------------------------------------
 Cartesian Forces:  Max     0.000006061 RMS     0.000003209

 GradGradGradGradGradGradGradGradGradGradGradGradGradGradGradGradGradGrad
 Berny optimization.
 Internal  Forces:  Max     0.000004150 RMS     0.000003858
 Search for a local minimum.
 Step number   1 out of a maximum of    2
 All quantities printed in internal units (Hartrees-Bohrs-Radians)
 Second derivative matrix not updated -- analytic derivatives used.
 The second derivative matrix:
                          R1        R2        A1
           R1           0.25889
           R2          -0.00044   0.25889
           A1           0.01528   0.01528   0.21167
     Eigenvalues ---    0.20322   0.25933   0.26690
 Angle between quadratic step and forces=   7.43 degrees.
 Linear search not attempted -- first point.
 Iteration  1 RMS(Cart)=  0.00001338 RMS(Int)=  0.00000000
 Iteration  2 RMS(Cart)=  0.00000000 RMS(Int)=  0.00000000
 ClnCor:  largest displacement from symmetrization is 2.09D-15 for atom     1.
 Variable       Old X    -DE/DX   Delta X   Delta X   Delta X     New X
                                 (Linear)    (Quad)   (Total)
    R1        2.55214   0.00000   0.00000   0.00002   0.00002   2.55216
    R2        2.55214   0.00000   0.00000   0.00002   0.00002   2.55216
    A1        1.67225   0.00000   0.00000  -0.00002  -0.00002   1.67223
         Item               Value     Threshold  Converged?
 Maximum Force            0.000004     0.000450     YES
 RMS     Force            0.000004     0.000300     YES
 Maximum Displacement     0.000015     0.001800     YES
 RMS     Displacement     0.000013     0.001200     YES
 Predicted change in Energy=-9.902310D-11
 Optimization completed.
    -- Stationary point found.
                           ----------------------------
                           !   Optimized Parameters   !
                           ! (Angstroms and Degrees)  !
 --------------------------                            --------------------------
 ! Name  Definition              Value          Derivative Info.                !
 --------------------------------------------------------------------------------
 ! R1    R(1,2)                  1.3505         -DE/DX =    0.0                 !
 ! R2    R(1,3)                  1.3505         -DE/DX =    0.0                 !
 ! A1    A(2,1,3)               95.813          -DE/DX =    0.0                 !
 --------------------------------------------------------------------------------
 GradGradGradGradGradGradGradGradGradGradGradGradGradGradGradGradGradGrad

 1|1|UNPC-DESKTOP-K2VF0AK|Freq|RHF|3-21G|H2S1|MELIH|28-Oct-2024|0||#N G
 eom=AllCheck Guess=TCheck SCRF=Check GenChk RHF/3-21G Freq||Title Card
  Required||0,1|S,1.9922589096,-0.4849891067,0.|H,3.3331736639,-0.32406
 19925,0.|H,1.6963489327,0.8327313491,0.||Version=IA32W-G09RevA.02|Stat
 e=1-A1|HF=-396.7046661|RMSD=2.172e-010|RMSF=3.209e-006|ZeroPoint=0.015
 0665|Thermal=0.0179094|Dipole=0.4155366,0.5879707,0.|DipoleDeriv=0.039
 7848,0.1253653,0.,0.1253653,0.1285732,0.,0.,0.,-0.4208448,-0.1056339,-
 0.0159648,0.,-0.1701258,0.0214549,0.,0.,0.,0.2104224,0.0658491,-0.1094
 005,0.,0.0447605,-0.1500281,0.,0.,0.,0.2104224|Polar=17.2574445,-1.959
 3774,15.8697407,0.,0.,5.8283266|PolarDeriv=-11.8148421,-5.3860137,-0.5
 184568,0.,0.,1.3271342,-2.4733968,-2.5768908,-14.9778175,0.,0.,1.87785
 15,0.,0.,0.,-2.9203408,-4.1321866,0.,13.4639516,0.8854743,0.3679173,0.
 ,0.,-1.7347107,1.7101816,4.624697,1.598184,0.,0.,-0.1819163,0.,0.,0.,4
 .2229242,0.113572,0.,-1.6491095,4.5005394,0.1505395,0.,0.,0.4075764,0.
 7632152,-2.0478062,13.3796335,0.,0.,-1.6959352,0.,0.,0.,-1.3025834,4.0
 186147,0.|HyperPolar=44.782726,4.8827572,-13.8010938,38.9552387,0.,0.,
 0.,0.2468811,0.3493287,0.|PG=C02V [C2(S1),SGV(H2)]|NImag=0||0.28374150
 ,-0.00262276,0.28188397,0.,0.,-0.00000434,-0.24745435,-0.01908592,0.,0
 .25709116,-0.05306955,-0.03535839,0.,0.02096922,0.03429480,0.,0.,0.000
 00217,0.,0.,-0.00000168,-0.03628716,0.02170867,0.,-0.00963682,0.032100
 33,0.,0.04592397,0.05569231,-0.24652558,0.,-0.00188331,0.00106359,0.,-
 0.05380900,0.24546199,0.,0.,0.00000217,0.,0.,-0.00000049,0.,0.,-0.0000
 0168||0.00000428,0.00000606,0.,-0.00000397,-0.00000174,0.,-0.00000031,
 -0.00000432,0.|||@


 A true friend is someone who is there for
 you when he'd rather be anywhere else.
                               -- Len Wein
 Job cpu time:  0 days  0 hours  0 minutes  4.0 seconds.
 File lengths (MBytes):  RWF=      5 Int=      0 D2E=      0 Chk=      1 Scr=      1
 Normal termination of Gaussian 09 at Mon Oct 28 15:31:49 2024.
